D 0.015725585 _30_ MAC  COL 0 AODV 106 [0 ffffffff c 800] [energy 89.995887 ei 0.001 es 0.000 et 0.000 er 0.003] ------- [12:255 -1:255 28 0] [0x2 3 4 [3 0] [13 10]] (REQUEST)
D 0.015725587 _40_ MAC  COL 0 AODV 106 [0 ffffffff c 800] [energy 89.995888 ei 0.001 es 0.000 et 0.000 er 0.003] ------- [12:255 -1:255 28 0] [0x2 3 4 [3 0] [13 10]] (REQUEST)
D 0.015725639 _33_ MAC  COL 0 AODV 106 [0 ffffffff c 800] [energy 89.995887 ei 0.001 es 0.000 et 0.000 er 0.003] ------- [12:255 -1:255 28 0] [0x2 3 4 [3 0] [13 10]] (REQUEST)
D 0.015725680 _42_ MAC  COL 0 AODV 106 [0 ffffffff c 800] [energy 89.995887 ei 0.001 es 0.000 et 0.000 er 0.003] ------- [12:255 -1:255 28 0] [0x2 3 4 [3 0] [13 10]] (REQUEST)
D 0.015725684 _22_ MAC  COL 0 AODV 106 [0 ffffffff c 800] [energy 89.995887 ei 0.001 es 0.000 et 0.000 er 0.003] ------- [12:255 -1:255 28 0] [0x2 3 4 [3 0] [13 10]] (REQUEST)
D 0.015725790 _43_ MAC  COL 0 AODV 106 [0 ffffffff c 800] [energy 89.995887 ei 0.001 es 0.000 et 0.000 er 0.003] ------- [12:255 -1:255 28 0] [0x2 3 4 [3 0] [13 10]] (REQUEST)
D 0.015725823 _44_ MAC  COL 0 AODV 106 [0 ffffffff c 800] [energy 89.995887 ei 0.001 es 0.000 et 0.000 er 0.003] ------- [12:255 -1:255 28 0] [0x2 3 4 [3 0] [13 10]] (REQUEST)
D 0.015725896 _49_ MAC  COL 0 AODV 106 [0 ffffffff c 800] [energy 89.995039 ei 0.001 es 0.000 et 0.001 er 0.002] ------- [12:255 -1:255 28 0] [0x2 3 4 [3 0] [13 10]] (REQUEST)
D 0.015725930 _17_ MAC  COL 0 AODV 106 [0 ffffffff c 800] [energy 89.995887 ei 0.001 es 0.000 et 0.000 er 0.003] ------- [12:255 -1:255 28 0] [0x2 3 4 [3 0] [13 10]] (REQUEST)
D 0.015725963 _29_ MAC  COL 0 AODV 106 [0 ffffffff c 800] [energy 89.995887 ei 0.001 es 0.000 et 0.000 er 0.003] ------- [12:255 -1:255 28 0] [0x2 3 4 [3 0] [13 10]] (REQUEST)
D 0.015725966 _28_ MAC  COL 0 AODV 106 [0 ffffffff c 800] [energy 89.995887 ei 0.001 es 0.000 et 0.000 er 0.003] ------- [12:255 -1:255 28 0] [0x2 3 4 [3 0] [13 10]] (REQUEST)
D 0.015726024 _0_ MAC  COL 0 AODV 106 [0 ffffffff c 800] [energy 89.995199 ei 0.001 es 0.000 et 0.001 er 0.003] ------- [12:255 -1:255 28 0] [0x2 3 4 [3 0] [13 10]] (REQUEST)
D 0.015726083 _35_ MAC  COL 0 AODV 106 [0 ffffffff c 800] [energy 89.994191 ei 0.001 es 0.000 et 0.002 er 0.002] ------- [12:255 -1:255 28 0] [0x2 3 4 [3 0] [13 10]] (REQUEST)
D 0.015726222 _25_ MAC  COL 0 AODV 106 [0 ffffffff c 800] [energy 89.995039 ei 0.001 es 0.000 et 0.001 er 0.002] ------- [12:255 -1:255 28 0] [0x2 3 4 [3 0] [13 10]] (REQUEST)
D 0.015726227 _10_ MAC  COL 0 AODV 106 [0 ffffffff c 800] [energy 89.995887 ei 0.001 es 0.000 et 0.000 er 0.003] ------- [12:255 -1:255 28 0] [0x2 3 4 [3 0] [13 10]] (REQUEST)
D 0.015726245 _2_ MAC  COL 0 AODV 106 [0 ffffffff c 800] [energy 89.995039 ei 0.001 es 0.000 et 0.001 er 0.002] ------- [12:255 -1:255 28 0] [0x2 3 4 [3 0] [13 10]] (REQUEST)
D 0.015726302 _1_ MAC  COL 0 AODV 106 [0 ffffffff c 800] [energy 89.995887 ei 0.001 es 0.000 et 0.000 er 0.003] ------- [12:255 -1:255 28 0] [0x2 3 4 [3 0] [13 10]] (REQUEST)
D 0.015726451 _37_ MAC  COL 0 AODV 106 [0 ffffffff c 800] [energy 89.995887 ei 0.001 es 0.000 et 0.000 er 0.003] ------- [12:255 -1:255 28 0] [0x2 3 4 [3 0] [13 10]] (REQUEST)
D 0.015726525 _6_ MAC  COL 0 AODV 106 [0 ffffffff c 800] [energy 89.995887 ei 0.001 es 0.000 et 0.000 er 0.003] ------- [12:255 -1:255 28 0] [0x2 3 4 [3 0] [13 10]] (REQUEST)
D 0.016573585 _30_ MAC  COL 0 AODV 106 [0 ffffffff 7 800] [energy 89.995887 ei 0.001 es 0.000 et 0.000 er 0.003] ------- [7:255 -1:255 28 0] [0x2 3 1 [0 0] [13 4]] (REQUEST)
D 0.016573587 _40_ MAC  COL 0 AODV 106 [0 ffffffff 7 800] [energy 89.995888 ei 0.001 es 0.000 et 0.000 er 0.003] ------- [7:255 -1:255 28 0] [0x2 3 1 [0 0] [13 4]] (REQUEST)
D 0.016573639 _33_ MAC  COL 0 AODV 106 [0 ffffffff 7 800] [energy 89.995887 ei 0.001 es 0.000 et 0.000 er 0.003] ------- [7:255 -1:255 28 0] [0x2 3 1 [0 0] [13 4]] (REQUEST)
D 0.016573680 _42_ MAC  COL 0 AODV 106 [0 ffffffff 7 800] [energy 89.995887 ei 0.001 es 0.000 et 0.000 er 0.003] ------- [7:255 -1:255 28 0] [0x2 3 1 [0 0] [13 4]] (REQUEST)
D 0.016573684 _22_ MAC  COL 0 AODV 106 [0 ffffffff 7 800] [energy 89.995887 ei 0.001 es 0.000 et 0.000 er 0.003] ------- [7:255 -1:255 28 0] [0x2 3 1 [0 0] [13 4]] (REQUEST)
D 0.016573780 _27_ MAC  COL 0 AODV 106 [0 ffffffff 7 800] [energy 89.995887 ei 0.001 es 0.000 et 0.000 er 0.003] ------- [7:255 -1:255 28 0] [0x2 3 1 [0 0] [13 4]] (REQUEST)
D 0.016573790 _43_ MAC  COL 0 AODV 106 [0 ffffffff 7 800] [energy 89.995887 ei 0.001 es 0.000 et 0.000 er 0.003] ------- [7:255 -1:255 28 0] [0x2 3 1 [0 0] [13 4]] (REQUEST)
D 0.016573823 _44_ MAC  COL 0 AODV 106 [0 ffffffff 7 800] [energy 89.995887 ei 0.001 es 0.000 et 0.000 er 0.003] ------- [7:255 -1:255 28 0] [0x2 3 1 [0 0] [13 4]] (REQUEST)
D 0.016573896 _49_ MAC  COL 0 AODV 106 [0 ffffffff 7 800] [energy 89.995039 ei 0.001 es 0.000 et 0.001 er 0.002] ------- [7:255 -1:255 28 0] [0x2 3 1 [0 0] [13 4]] (REQUEST)
D 0.016573926 _31_ MAC  COL 0 AODV 106 [0 ffffffff 7 800] [energy 89.995887 ei 0.001 es 0.000 et 0.000 er 0.003] ------- [7:255 -1:255 28 0] [0x2 3 1 [0 0] [13 4]] (REQUEST)
D 0.016573930 _17_ MAC  COL 0 AODV 106 [0 ffffffff 7 800] [energy 89.995887 ei 0.001 es 0.000 et 0.000 er 0.003] ------- [7:255 -1:255 28 0] [0x2 3 1 [0 0] [13 4]] (REQUEST)
D 0.016573963 _29_ MAC  COL 0 AODV 106 [0 ffffffff 7 800] [energy 89.995887 ei 0.001 es 0.000 et 0.000 er 0.003] ------- [7:255 -1:255 28 0] [0x2 3 1 [0 0] [13 4]] (REQUEST)
D 0.016573966 _28_ MAC  COL 0 AODV 106 [0 ffffffff 7 800] [energy 89.995887 ei 0.001 es 0.000 et 0.000 er 0.003] ------- [7:255 -1:255 28 0] [0x2 3 1 [0 0] [13 4]] (REQUEST)
D 0.016574008 _15_ MAC  COL 0 AODV 106 [0 ffffffff 7 800] [energy 89.995887 ei 0.001 es 0.000 et 0.000 er 0.003] ------- [7:255 -1:255 28 0] [0x2 3 1 [0 0] [13 4]] (REQUEST)
D 0.016574024 _0_ MAC  COL 0 AODV 106 [0 ffffffff 7 800] [energy 89.995199 ei 0.001 es 0.000 et 0.001 er 0.003] ------- [7:255 -1:255 28 0] [0x2 3 1 [0 0] [13 4]] (REQUEST)
D 0.016574071 _14_ MAC  COL 0 AODV 106 [0 ffffffff 7 800] [energy 89.995039 ei 0.001 es 0.000 et 0.001 er 0.002] ------- [7:255 -1:255 28 0] [0x2 3 1 [0 0] [13 4]] (REQUEST)
D 0.016574083 _35_ MAC  COL 0 AODV 106 [0 ffffffff 7 800] [energy 89.994191 ei 0.001 es 0.000 et 0.002 er 0.002] ------- [7:255 -1:255 28 0] [0x2 3 1 [0 0] [13 4]] (REQUEST)
D 0.016574150 _3_ MAC  COL 0 AODV 106 [0 ffffffff 7 800] [energy 89.995887 ei 0.001 es 0.000 et 0.000 er 0.003] ------- [7:255 -1:255 28 0] [0x2 3 1 [0 0] [13 4]] (REQUEST)
D 0.016574203 _41_ MAC  COL 0 AODV 106 [0 ffffffff 7 800] [energy 89.995887 ei 0.001 es 0.000 et 0.000 er 0.003] ------- [7:255 -1:255 28 0] [0x2 3 1 [0 0] [13 4]] (REQUEST)
D 0.016574222 _25_ MAC  COL 0 AODV 106 [0 ffffffff 7 800] [energy 89.995039 ei 0.001 es 0.000 et 0.001 er 0.002] ------- [7:255 -1:255 28 0] [0x2 3 1 [0 0] [13 4]] (REQUEST)
D 0.016574227 _10_ MAC  COL 0 AODV 106 [0 ffffffff 7 800] [energy 89.995887 ei 0.001 es 0.000 et 0.000 er 0.003] ------- [7:255 -1:255 28 0] [0x2 3 1 [0 0] [13 4]] (REQUEST)
D 0.017008378 _10_ MAC  COL 0 AODV 106 [0 ffffffff 28 800] [energy 89.995305 ei 0.002 es 0.000 et 0.000 er 0.003] ------- [40:255 -1:255 28 0] [0x2 3 4 [3 0] [13 10]] (REQUEST)
D 0.017008482 _25_ MAC  COL 0 AODV 106 [0 ffffffff 28 800] [energy 89.994457 ei 0.002 es 0.000 et 0.001 er 0.003] ------- [40:255 -1:255 28 0] [0x2 3 4 [3 0] [13 10]] (REQUEST)
D 0.017008510 _2_ MAC  COL 0 AODV 106 [0 ffffffff 28 800] [energy 89.994457 ei 0.002 es 0.000 et 0.001 er 0.003] ------- [40:255 -1:255 28 0] [0x2 3 4 [3 0] [13 10]] (REQUEST)
D 0.017008595 _35_ MAC  COL 0 AODV 106 [0 ffffffff 28 800] [energy 89.993609 ei 0.002 es 0.000 et 0.002 er 0.002] ------- [40:255 -1:255 28 0] [0x2 3 4 [3 0] [13 10]] (REQUEST)
D 0.017008610 _29_ MAC  COL 0 AODV 106 [0 ffffffff 28 800] [energy 89.995305 ei 0.002 es 0.000 et 0.000 er 0.003] ------- [40:255 -1:255 28 0] [0x2 3 4 [3 0] [13 10]] (REQUEST)
D 0.017008675 _0_ MAC  COL 0 AODV 106 [0 ffffffff 28 800] [energy 89.994617 ei 0.002 es 0.000 et 0.001 er 0.003] ------- [40:255 -1:255 28 0] [0x2 3 4 [3 0] [13 10]] (REQUEST)
D 0.017008720 _49_ MAC  COL 0 AODV 106 [0 ffffffff 28 800] [energy 89.994457 ei 0.002 es 0.000 et 0.001 er 0.003] ------- [40:255 -1:255 28 0] [0x2 3 4 [3 0] [13 10]] (REQUEST)
D 0.017008742 _28_ MAC  COL 0 AODV 106 [0 ffffffff 28 800] [energy 89.995304 ei 0.002 es 0.000 et 0.000 er 0.003] ------- [40:255 -1:255 28 0] [0x2 3 4 [3 0] [13 10]] (REQUEST)
D 0.017008777 _15_ MAC  COL 0 AODV 106 [0 ffffffff 28 800] [energy 89.995304 ei 0.002 es 0.000 et 0.000 er 0.003] ------- [40:255 -1:255 28 0] [0x2 3 4 [3 0] [13 10]] (REQUEST)
D 0.017008817 _17_ MAC  COL 0 AODV 106 [0 ffffffff 28 800] [energy 89.995304 ei 0.002 es 0.000 et 0.000 er 0.003] ------- [40:255 -1:255 28 0] [0x2 3 4 [3 0] [13 10]] (REQUEST)
D 0.017008835 _3_ MAC  COL 0 AODV 106 [0 ffffffff 28 800] [energy 89.995304 ei 0.002 es 0.000 et 0.000 er 0.003] ------- [40:255 -1:255 28 0] [0x2 3 4 [3 0] [13 10]] (REQUEST)
D 0.017008905 _44_ MAC  COL 0 AODV 106 [0 ffffffff 28 800] [energy 89.995304 ei 0.002 es 0.000 et 0.000 er 0.003] ------- [40:255 -1:255 28 0] [0x2 3 4 [3 0] [13 10]] (REQUEST)
D 0.017008992 _43_ MAC  COL 0 AODV 106 [0 ffffffff 28 800] [energy 89.995304 ei 0.002 es 0.000 et 0.000 er 0.003] ------- [40:255 -1:255 28 0] [0x2 3 4 [3 0] [13 10]] (REQUEST)
D 0.017009093 _14_ MAC  COL 0 AODV 106 [0 ffffffff 28 800] [energy 89.994456 ei 0.002 es 0.000 et 0.001 er 0.003] ------- [40:255 -1:255 28 0] [0x2 3 4 [3 0] [13 10]] (REQUEST)
D 0.017009115 _31_ MAC  COL 0 AODV 106 [0 ffffffff 28 800] [energy 89.995304 ei 0.002 es 0.000 et 0.000 er 0.003] ------- [40:255 -1:255 28 0] [0x2 3 4 [3 0] [13 10]] (REQUEST)
D 0.017856378 _10_ MAC  COL 0 AODV 106 [0 ffffffff 1 800] [energy 89.995305 ei 0.002 es 0.000 et 0.000 er 0.003] ------- [1:255 -1:255 29 0] [0x2 2 4 [3 0] [13 10]] (REQUEST)
D 0.017856482 _25_ MAC  COL 0 AODV 106 [0 ffffffff 1 800] [energy 89.994457 ei 0.002 es 0.000 et 0.001 er 0.003] ------- [1:255 -1:255 29 0] [0x2 2 4 [3 0] [13 10]] (REQUEST)
D 0.017856510 _2_ MAC  COL 0 AODV 106 [0 ffffffff 1 800] [energy 89.994457 ei 0.002 es 0.000 et 0.001 er 0.003] ------- [1:255 -1:255 29 0] [0x2 2 4 [3 0] [13 10]] (REQUEST)
D 0.017856580 _11_ MAC  COL 0 AODV 106 [0 ffffffff 1 800] [energy 89.995304 ei 0.002 es 0.000 et 0.000 er 0.003] ------- [1:255 -1:255 29 0] [0x2 2 4 [3 0] [13 10]] (REQUEST)
D 0.017856595 _35_ MAC  COL 0 AODV 106 [0 ffffffff 1 800] [energy 89.993609 ei 0.002 es 0.000 et 0.002 er 0.002] ------- [1:255 -1:255 29 0] [0x2 2 4 [3 0] [13 10]] (REQUEST)
D 0.017856610 _29_ MAC  COL 0 AODV 106 [0 ffffffff 1 800] [energy 89.995305 ei 0.002 es 0.000 et 0.000 er 0.003] ------- [1:255 -1:255 29 0] [0x2 2 4 [3 0] [13 10]] (REQUEST)
D 0.017856675 _0_ MAC  COL 0 AODV 106 [0 ffffffff 1 800] [energy 89.994617 ei 0.002 es 0.000 et 0.001 er 0.003] ------- [1:255 -1:255 29 0] [0x2 2 4 [3 0] [13 10]] (REQUEST)
D 0.017856720 _49_ MAC  COL 0 AODV 106 [0 ffffffff 1 800] [energy 89.994457 ei 0.002 es 0.000 et 0.001 er 0.003] ------- [1:255 -1:255 29 0] [0x2 2 4 [3 0] [13 10]] (REQUEST)
D 0.017856742 _28_ MAC  COL 0 AODV 106 [0 ffffffff 1 800] [energy 89.995304 ei 0.002 es 0.000 et 0.000 er 0.003] ------- [1:255 -1:255 29 0] [0x2 2 4 [3 0] [13 10]] (REQUEST)
D 0.017856777 _15_ MAC  COL 0 AODV 106 [0 ffffffff 1 800] [energy 89.995304 ei 0.002 es 0.000 et 0.000 er 0.003] ------- [1:255 -1:255 29 0] [0x2 2 4 [3 0] [13 10]] (REQUEST)
D 0.017856817 _17_ MAC  COL 0 AODV 106 [0 ffffffff 1 800] [energy 89.995304 ei 0.002 es 0.000 et 0.000 er 0.003] ------- [1:255 -1:255 29 0] [0x2 2 4 [3 0] [13 10]] (REQUEST)
D 0.017856825 _52_ MAC  COL 0 AODV 106 [0 ffffffff 1 800] [energy 89.995304 ei 0.002 es 0.000 et 0.000 er 0.003] ------- [1:255 -1:255 29 0] [0x2 2 4 [3 0] [13 10]] (REQUEST)
D 0.017856835 _3_ MAC  COL 0 AODV 106 [0 ffffffff 1 800] [energy 89.995304 ei 0.002 es 0.000 et 0.000 er 0.003] ------- [1:255 -1:255 29 0] [0x2 2 4 [3 0] [13 10]] (REQUEST)
D 0.017856848 _18_ MAC  COL 0 AODV 106 [0 ffffffff 1 800] [energy 89.994456 ei 0.002 es 0.000 et 0.001 er 0.003] ------- [1:255 -1:255 29 0] [0x2 2 4 [3 0] [13 10]] (REQUEST)
D 0.017856866 _41_ MAC  COL 0 AODV 106 [0 ffffffff 1 800] [energy 89.995304 ei 0.002 es 0.000 et 0.000 er 0.003] ------- [1:255 -1:255 29 0] [0x2 2 4 [3 0] [13 10]] (REQUEST)
D 0.017856905 _44_ MAC  COL 0 AODV 106 [0 ffffffff 1 800] [energy 89.995304 ei 0.002 es 0.000 et 0.000 er 0.003] ------- [1:255 -1:255 29 0] [0x2 2 4 [3 0] [13 10]] (REQUEST)
D 0.017856957 _45_ MAC  COL 0 AODV 106 [0 ffffffff 1 800] [energy 89.995304 ei 0.002 es 0.000 et 0.000 er 0.003] ------- [1:255 -1:255 29 0] [0x2 2 4 [3 0] [13 10]] (REQUEST)
D 0.017856982 _16_ MAC  COL 0 AODV 106 [0 ffffffff 1 800] [energy 89.995304 ei 0.002 es 0.000 et 0.000 er 0.003] ------- [1:255 -1:255 29 0] [0x2 2 4 [3 0] [13 10]] (REQUEST)
D 0.017856982 _53_ MAC  COL 0 AODV 106 [0 ffffffff 1 800] [energy 89.994456 ei 0.002 es 0.000 et 0.001 er 0.003] ------- [1:255 -1:255 29 0] [0x2 2 4 [3 0] [13 10]] (REQUEST)
D 0.017856992 _43_ MAC  COL 0 AODV 106 [0 ffffffff 1 800] [energy 89.995304 ei 0.002 es 0.000 et 0.000 er 0.003] ------- [1:255 -1:255 29 0] [0x2 2 4 [3 0] [13 10]] (REQUEST)
D 0.017856993 _38_ MAC  COL 0 AODV 106 [0 ffffffff 1 800] [energy 89.995304 ei 0.002 es 0.000 et 0.000 er 0.003] ------- [1:255 -1:255 29 0] [0x2 2 4 [3 0] [13 10]] (REQUEST)
D 0.017857052 _39_ MAC  COL 0 AODV 106 [0 ffffffff 1 800] [energy 89.995304 ei 0.002 es 0.000 et 0.000 er 0.003] ------- [1:255 -1:255 29 0] [0x2 2 4 [3 0] [13 10]] (REQUEST)
D 0.017857093 _14_ MAC  COL 0 AODV 106 [0 ffffffff 1 800] [energy 89.994456 ei 0.002 es 0.000 et 0.001 er 0.003] ------- [1:255 -1:255 29 0] [0x2 2 4 [3 0] [13 10]] (REQUEST)
D 0.017857115 _31_ MAC  COL 0 AODV 106 [0 ffffffff 1 800] [energy 89.995304 ei 0.002 es 0.000 et 0.000 er 0.003] ------- [1:255 -1:255 29 0] [0x2 2 4 [3 0] [13 10]] (REQUEST)
D 0.017857118 _36_ MAC  COL 0 AODV 106 [0 ffffffff 1 800] [energy 89.994456 ei 0.002 es 0.000 et 0.001 er 0.003] ------- [1:255 -1:255 29 0] [0x2 2 4 [3 0] [13 10]] (REQUEST)
D 0.018292055 _17_ MAC  COL 0 AODV 106 [0 ffffffff 1b 800] [energy 89.994721 ei 0.002 es 0.000 et 0.000 er 0.003] ------- [27:255 -1:255 26 0] [0x2 5 1 [0 0] [13 4]] (REQUEST)
D 0.018292102 _3_ MAC  COL 0 AODV 106 [0 ffffffff 27 800] [energy 89.994721 ei 0.002 es 0.000 et 0.000 er 0.003] ------- [39:255 -1:255 29 0] [0x2 2 1 [0 0] [13 4]] (REQUEST)
D 0.018292142 _41_ MAC  COL 0 AODV 106 [0 ffffffff 27 800] [energy 89.994721 ei 0.002 es 0.000 et 0.000 er 0.003] ------- [39:255 -1:255 29 0] [0x2 2 1 [0 0] [13 4]] (REQUEST)
D 0.018292159 _49_ MAC  COL 0 AODV 106 [0 ffffffff 1b 800] [energy 89.993873 ei 0.002 es 0.000 et 0.001 er 0.003] ------- [27:255 -1:255 26 0] [0x2 5 1 [0 0] [13 4]] (REQUEST)
D 0.018292252 _45_ MAC  COL 0 AODV 106 [0 ffffffff 27 800] [energy 89.994721 ei 0.002 es 0.000 et 0.000 er 0.003] ------- [39:255 -1:255 29 0] [0x2 2 1 [0 0] [13 4]] (REQUEST)
D 0.018292257 _25_ MAC  COL 0 AODV 106 [0 ffffffff 27 800] [energy 89.993873 ei 0.002 es 0.000 et 0.001 er 0.003] ------- [39:255 -1:255 29 0] [0x2 2 1 [0 0] [13 4]] (REQUEST)
D 0.018292279 _53_ MAC  COL 0 AODV 106 [0 ffffffff 27 800] [energy 89.993873 ei 0.002 es 0.000 et 0.001 er 0.003] ------- [39:255 -1:255 29 0] [0x2 2 1 [0 0] [13 4]] (REQUEST)
D 0.018292327 _2_ MAC  COL 0 AODV 106 [0 ffffffff 27 800] [energy 89.993873 ei 0.002 es 0.000 et 0.001 er 0.003] ------- [39:255 -1:255 29 0] [0x2 2 1 [0 0] [13 4]] (REQUEST)
D 0.018292392 _10_ MAC  COL 0 AODV 106 [0 ffffffff 27 800] [energy 89.994721 ei 0.002 es 0.000 et 0.000 er 0.003] ------- [39:255 -1:255 29 0] [0x2 2 1 [0 0] [13 4]] (REQUEST)
D 0.018292427 _1_ MAC  COL 0 AODV 106 [0 ffffffff 27 800] [energy 89.993873 ei 0.002 es 0.000 et 0.001 er 0.003] ------- [39:255 -1:255 29 0] [0x2 2 1 [0 0] [13 4]] (REQUEST)
D 0.018292441 _19_ MAC  COL 0 AODV 106 [0 ffffffff 27 800] [energy 89.994721 ei 0.002 es 0.000 et 0.000 er 0.003] ------- [39:255 -1:255 29 0] [0x2 2 1 [0 0] [13 4]] (REQUEST)
D 0.018292611 _37_ MAC  COL 0 AODV 106 [0 ffffffff 27 800] [energy 89.994721 ei 0.002 es 0.000 et 0.000 er 0.003] ------- [39:255 -1:255 29 0] [0x2 2 1 [0 0] [13 4]] (REQUEST)
D 0.018292706 _6_ MAC  COL 0 AODV 106 [0 ffffffff 27 800] [energy 89.994721 ei 0.002 es 0.000 et 0.000 er 0.003] ------- [39:255 -1:255 29 0] [0x2 2 1 [0 0] [13 4]] (REQUEST)
D 0.019140028 _15_ MAC  COL 0 AODV 106 [0 ffffffff 1b 800] [energy 89.994721 ei 0.002 es 0.000 et 0.000 er 0.003] ------- [27:255 -1:255 26 0] [0x2 5 1 [0 0] [13 4]] (REQUEST)
D 0.019140040 _28_ MAC  COL 0 AODV 106 [0 ffffffff 1b 800] [energy 89.994721 ei 0.002 es 0.000 et 0.000 er 0.003] ------- [27:255 -1:255 26 0] [0x2 5 1 [0 0] [13 4]] (REQUEST)
D 0.019140085 _36_ MAC  COL 0 AODV 106 [0 ffffffff 1b 800] [energy 89.993873 ei 0.002 es 0.000 et 0.001 er 0.003] ------- [27:255 -1:255 26 0] [0x2 5 1 [0 0] [13 4]] (REQUEST)
D 0.019140091 _51_ MAC  COL 0 AODV 106 [0 ffffffff 1b 800] [energy 89.994721 ei 0.002 es 0.000 et 0.000 er 0.003] ------- [27:255 -1:255 26 0] [0x2 5 1 [0 0] [13 4]] (REQUEST)
D 0.019140093 _0_ MAC  COL 0 AODV 106 [0 ffffffff 1b 800] [energy 89.994033 ei 0.002 es 0.000 et 0.001 er 0.003] ------- [27:255 -1:255 26 0] [0x2 5 1 [0 0] [13 4]] (REQUEST)
D 0.019140102 _3_ MAC  COL 0 AODV 106 [0 ffffffff 1b 800] [energy 89.994721 ei 0.002 es 0.000 et 0.000 er 0.003] ------- [27:255 -1:255 26 0] [0x2 5 1 [0 0] [13 4]] (REQUEST)
D 0.019140118 _35_ MAC  COL 0 AODV 106 [0 ffffffff 1b 800] [energy 89.993025 ei 0.002 es 0.000 et 0.002 er 0.003] ------- [27:255 -1:255 26 0] [0x2 5 1 [0 0] [13 4]] (REQUEST)
D 0.019140142 _41_ MAC  COL 0 AODV 106 [0 ffffffff 1b 800] [energy 89.994721 ei 0.002 es 0.000 et 0.000 er 0.003] ------- [27:255 -1:255 26 0] [0x2 5 1 [0 0] [13 4]] (REQUEST)
D 0.019140181 _29_ MAC  COL 0 AODV 106 [0 ffffffff 1b 800] [energy 89.994721 ei 0.002 es 0.000 et 0.000 er 0.003] ------- [27:255 -1:255 26 0] [0x2 5 1 [0 0] [13 4]] (REQUEST)
D 0.020553393 _37_ MAC  COL 0 AODV 106 [0 ffffffff 19 800] [energy 89.993859 ei 0.003 es 0.000 et 0.000 er 0.003] ------- [25:255 -1:255 29 0] [0x2 2 4 [3 0] [13 10]] (REQUEST)
D 0.020553494 _24_ MAC  COL 0 AODV 106 [0 ffffffff 19 800] [energy 89.993859 ei 0.003 es 0.000 et 0.000 er 0.003] ------- [25:255 -1:255 29 0] [0x2 2 4 [3 0] [13 10]] (REQUEST)
D 0.020553506 _9_ MAC  COL 0 AODV 106 [0 ffffffff 19 800] [energy 89.993011 ei 0.003 es 0.000 et 0.001 er 0.003] ------- [25:255 -1:255 29 0] [0x2 2 4 [3 0] [13 10]] (REQUEST)
D 0.020553518 _11_ MAC  COL 0 AODV 106 [0 ffffffff 19 800] [energy 89.993859 ei 0.003 es 0.000 et 0.000 er 0.003] ------- [25:255 -1:255 29 0] [0x2 2 4 [3 0] [13 10]] (REQUEST)
D 0.020553522 _50_ MAC  COL 0 AODV 106 [0 ffffffff 19 800] [energy 89.993859 ei 0.003 es 0.000 et 0.000 er 0.003] ------- [25:255 -1:255 29 0] [0x2 2 4 [3 0] [13 10]] (REQUEST)
D 0.020553530 _19_ MAC  COL 0 AODV 106 [0 ffffffff 19 800] [energy 89.993859 ei 0.003 es 0.000 et 0.000 er 0.003] ------- [25:255 -1:255 29 0] [0x2 2 4 [3 0] [13 10]] (REQUEST)
D 0.020553573 _1_ MAC  COL 0 AODV 106 [0 ffffffff 19 800] [energy 89.993011 ei 0.003 es 0.000 et 0.001 er 0.003] ------- [25:255 -1:255 29 0] [0x2 2 4 [3 0] [13 10]] (REQUEST)
D 0.020553589 _10_ MAC  COL 0 AODV 106 [0 ffffffff 19 800] [energy 89.993859 ei 0.003 es 0.000 et 0.000 er 0.003] ------- [25:255 -1:255 29 0] [0x2 2 4 [3 0] [13 10]] (REQUEST)
D 0.020553608 _13_ MAC  COL 0 AODV 106 [0 ffffffff 5 800] [energy 89.992164 ei 0.003 es 0.000 et 0.002 er 0.003] ------- [5:255 -1:255 29 0] [0x2 2 1 [0 0] [13 4]] (REQUEST)
D 0.020553653 _48_ MAC  COL 0 AODV 106 [0 ffffffff 19 800] [energy 89.993859 ei 0.003 es 0.000 et 0.000 er 0.003] ------- [25:255 -1:255 29 0] [0x2 2 4 [3 0] [13 10]] (REQUEST)
D 0.020553674 _23_ MAC  COL 0 AODV 106 [0 ffffffff 5 800] [energy 89.993860 ei 0.003 es 0.000 et 0.000 er 0.003] ------- [5:255 -1:255 29 0] [0x2 2 1 [0 0] [13 4]] (REQUEST)
D 0.020553702 _52_ MAC  COL 0 AODV 106 [0 ffffffff 19 800] [energy 89.993859 ei 0.003 es 0.000 et 0.000 er 0.003] ------- [25:255 -1:255 29 0] [0x2 2 4 [3 0] [13 10]] (REQUEST)
D 0.020553766 _39_ MAC  COL 0 AODV 106 [0 ffffffff 19 800] [energy 89.993012 ei 0.003 es 0.000 et 0.001 er 0.003] ------- [25:255 -1:255 29 0] [0x2 2 4 [3 0] [13 10]] (REQUEST)
D 0.020553864 _16_ MAC  COL 0 AODV 106 [0 ffffffff 19 800] [energy 89.993011 ei 0.003 es 0.000 et 0.001 er 0.003] ------- [25:255 -1:255 29 0] [0x2 2 4 [3 0] [13 10]] (REQUEST)
D 0.020553923 _38_ MAC  COL 0 AODV 106 [0 ffffffff 19 800] [energy 89.993859 ei 0.003 es 0.000 et 0.000 er 0.003] ------- [25:255 -1:255 29 0] [0x2 2 4 [3 0] [13 10]] (REQUEST)
D 0.020554072 _53_ MAC  COL 0 AODV 106 [0 ffffffff 19 800] [energy 89.993011 ei 0.003 es 0.000 et 0.001 er 0.003] ------- [25:255 -1:255 29 0] [0x2 2 4 [3 0] [13 10]] (REQUEST)
D 0.020554104 _45_ MAC  COL 0 AODV 106 [0 ffffffff 19 800] [energy 89.993859 ei 0.003 es 0.000 et 0.000 er 0.003] ------- [25:255 -1:255 29 0] [0x2 2 4 [3 0] [13 10]] (REQUEST)
D 0.020554188 _12_ MAC  COL 0 AODV 106 [0 ffffffff 19 800] [energy 89.992163 ei 0.003 es 0.000 et 0.002 er 0.003] ------- [25:255 -1:255 29 0] [0x2 2 4 [3 0] [13 10]] (REQUEST)
D 0.020554214 _34_ MAC  COL 0 AODV 106 [0 ffffffff 19 800] [energy 89.993860 ei 0.003 es 0.000 et 0.000 er 0.003] ------- [25:255 -1:255 29 0] [0x2 2 4 [3 0] [13 10]] (REQUEST)
D 0.020554264 _40_ MAC  COL 0 AODV 106 [0 ffffffff 19 800] [energy 89.993011 ei 0.003 es 0.000 et 0.001 er 0.003] ------- [25:255 -1:255 29 0] [0x2 2 4 [3 0] [13 10]] (REQUEST)
D 0.020554446 _26_ MAC  COL 0 AODV 106 [0 ffffffff 19 800] [energy 89.993858 ei 0.003 es 0.000 et 0.000 er 0.003] ------- [25:255 -1:255 29 0] [0x2 2 4 [3 0] [13 10]] (REQUEST)
D 0.021401393 _37_ MAC  COL 0 AODV 106 [0 ffffffff 5 800] [energy 89.993859 ei 0.003 es 0.000 et 0.000 er 0.003] ------- [5:255 -1:255 29 0] [0x2 2 1 [0 0] [13 4]] (REQUEST)
D 0.021401494 _24_ MAC  COL 0 AODV 106 [0 ffffffff 5 800] [energy 89.993859 ei 0.003 es 0.000 et 0.000 er 0.003] ------- [5:255 -1:255 29 0] [0x2 2 1 [0 0] [13 4]] (REQUEST)
D 0.021401506 _9_ MAC  COL 0 AODV 106 [0 ffffffff 5 800] [energy 89.993011 ei 0.003 es 0.000 et 0.001 er 0.003] ------- [5:255 -1:255 29 0] [0x2 2 1 [0 0] [13 4]] (REQUEST)
D 0.021401518 _11_ MAC  COL 0 AODV 106 [0 ffffffff 5 800] [energy 89.993859 ei 0.003 es 0.000 et 0.000 er 0.003] ------- [5:255 -1:255 29 0] [0x2 2 1 [0 0] [13 4]] (REQUEST)
D 0.021401522 _50_ MAC  COL 0 AODV 106 [0 ffffffff 5 800] [energy 89.993859 ei 0.003 es 0.000 et 0.000 er 0.003] ------- [5:255 -1:255 29 0] [0x2 2 1 [0 0] [13 4]] (REQUEST)
D 0.021401530 _19_ MAC  COL 0 AODV 106 [0 ffffffff 5 800] [energy 89.993859 ei 0.003 es 0.000 et 0.000 er 0.003] ------- [5:255 -1:255 29 0] [0x2 2 1 [0 0] [13 4]] (REQUEST)
D 0.021401573 _1_ MAC  COL 0 AODV 106 [0 ffffffff 5 800] [energy 89.993011 ei 0.003 es 0.000 et 0.001 er 0.003] ------- [5:255 -1:255 29 0] [0x2 2 1 [0 0] [13 4]] (REQUEST)
D 0.021401589 _10_ MAC  COL 0 AODV 106 [0 ffffffff 5 800] [energy 89.993859 ei 0.003 es 0.000 et 0.000 er 0.003] ------- [5:255 -1:255 29 0] [0x2 2 1 [0 0] [13 4]] (REQUEST)
D 0.021401608 _13_ MAC  COL 0 AODV 106 [0 ffffffff 19 800] [energy 89.992164 ei 0.003 es 0.000 et 0.002 er 0.003] ------- [25:255 -1:255 29 0] [0x2 2 4 [3 0] [13 10]] (REQUEST)
D 0.021401653 _48_ MAC  COL 0 AODV 106 [0 ffffffff 5 800] [energy 89.993859 ei 0.003 es 0.000 et 0.000 er 0.003] ------- [5:255 -1:255 29 0] [0x2 2 1 [0 0] [13 4]] (REQUEST)
D 0.021401674 _23_ MAC  COL 0 AODV 106 [0 ffffffff 19 800] [energy 89.993860 ei 0.003 es 0.000 et 0.000 er 0.003] ------- [25:255 -1:255 29 0] [0x2 2 4 [3 0] [13 10]] (REQUEST)
D 0.021401702 _52_ MAC  COL 0 AODV 106 [0 ffffffff 5 800] [energy 89.993859 ei 0.003 es 0.000 et 0.000 er 0.003] ------- [5:255 -1:255 29 0] [0x2 2 1 [0 0] [13 4]] (REQUEST)
D 0.021401766 _39_ MAC  COL 0 AODV 106 [0 ffffffff 5 800] [energy 89.993012 ei 0.003 es 0.000 et 0.001 er 0.003] ------- [5:255 -1:255 29 0] [0x2 2 1 [0 0] [13 4]] (REQUEST)
D 0.021401864 _16_ MAC  COL 0 AODV 106 [0 ffffffff 5 800] [energy 89.993011 ei 0.003 es 0.000 et 0.001 er 0.003] ------- [5:255 -1:255 29 0] [0x2 2 1 [0 0] [13 4]] (REQUEST)
D 0.021401923 _38_ MAC  COL 0 AODV 106 [0 ffffffff 5 800] [energy 89.993859 ei 0.003 es 0.000 et 0.000 er 0.003] ------- [5:255 -1:255 29 0] [0x2 2 1 [0 0] [13 4]] (REQUEST)
D 0.021835634 _50_ MAC  COL 0 AODV 106 [0 ffffffff 14 800] [energy 89.993277 ei 0.003 es 0.000 et 0.000 er 0.003] ------- [20:255 -1:255 29 0] [0x2 2 4 [3 0] [13 10]] (REQUEST)
D 0.021835638 _24_ MAC  COL 0 AODV 106 [0 ffffffff 14 800] [energy 89.993277 ei 0.003 es 0.000 et 0.000 er 0.003] ------- [20:255 -1:255 29 0] [0x2 2 4 [3 0] [13 10]] (REQUEST)
D 0.021835659 _9_ MAC  COL 0 AODV 106 [0 ffffffff 14 800] [energy 89.992429 ei 0.003 es 0.000 et 0.001 er 0.003] ------- [20:255 -1:255 29 0] [0x2 2 4 [3 0] [13 10]] (REQUEST)
D 0.021835660 _11_ MAC  COL 0 AODV 106 [0 ffffffff 14 800] [energy 89.993277 ei 0.003 es 0.000 et 0.000 er 0.003] ------- [20:255 -1:255 29 0] [0x2 2 4 [3 0] [13 10]] (REQUEST)
D 0.021835748 _29_ MAC  COL 0 AODV 106 [0 ffffffff 1 800] [energy 89.993277 ei 0.003 es 0.000 et 0.000 er 0.003] ------- [1:255 -1:255 29 0] [0x2 2 1 [0 0] [13 4]] (REQUEST)
D 0.021835757 _19_ MAC  COL 0 AODV 106 [0 ffffffff 14 800] [energy 89.993277 ei 0.003 es 0.000 et 0.000 er 0.003] ------- [20:255 -1:255 29 0] [0x2 2 4 [3 0] [13 10]] (REQUEST)
D 0.021835832 _52_ MAC  COL 0 AODV 106 [0 ffffffff 14 800] [energy 89.993277 ei 0.003 es 0.000 et 0.000 er 0.003] ------- [20:255 -1:255 29 0] [0x2 2 4 [3 0] [13 10]] (REQUEST)
D 0.021835851 _10_ MAC  COL 0 AODV 106 [0 ffffffff 14 800] [energy 89.993276 ei 0.003 es 0.000 et 0.000 er 0.003] ------- [20:255 -1:255 29 0] [0x2 2 4 [3 0] [13 10]] (REQUEST)
D 0.021835856 _37_ MAC  COL 0 AODV 106 [0 ffffffff 14 800] [energy 89.993277 ei 0.003 es 0.000 et 0.000 er 0.003] ------- [20:255 -1:255 29 0] [0x2 2 4 [3 0] [13 10]] (REQUEST)
D 0.021835889 _32_ MAC  COL 0 AODV 106 [0 ffffffff 14 800] [energy 89.992429 ei 0.003 es 0.000 et 0.001 er 0.003] ------- [20:255 -1:255 29 0] [0x2 2 4 [3 0] [13 10]] (REQUEST)
D 0.021835958 _18_ MAC  COL 0 AODV 106 [0 ffffffff 14 800] [energy 89.992429 ei 0.003 es 0.000 et 0.001 er 0.003] ------- [20:255 -1:255 29 0] [0x2 2 4 [3 0] [13 10]] (REQUEST)
D 0.021835974 _6_ MAC  COL 0 AODV 106 [0 ffffffff 14 800] [energy 89.993277 ei 0.003 es 0.000 et 0.000 er 0.003] ------- [20:255 -1:255 29 0] [0x2 2 4 [3 0] [13 10]] (REQUEST)
D 0.021836014 _16_ MAC  COL 0 AODV 106 [0 ffffffff 14 800] [energy 89.992429 ei 0.003 es 0.000 et 0.001 er 0.003] ------- [20:255 -1:255 29 0] [0x2 2 4 [3 0] [13 10]] (REQUEST)
D 0.021836023 _35_ MAC  COL 0 AODV 106 [0 ffffffff 1 800] [energy 89.991581 ei 0.003 es 0.000 et 0.002 er 0.003] ------- [1:255 -1:255 29 0] [0x2 2 1 [0 0] [13 4]] (REQUEST)
D 0.021836033 _49_ MAC  COL 0 AODV 106 [0 ffffffff 14 800] [energy 89.992429 ei 0.003 es 0.000 et 0.001 er 0.003] ------- [20:255 -1:255 29 0] [0x2 2 4 [3 0] [13 10]] (REQUEST)
D 0.021836035 _42_ MAC  COL 0 AODV 106 [0 ffffffff 1 800] [energy 89.993277 ei 0.003 es 0.000 et 0.000 er 0.003] ------- [1:255 -1:255 29 0] [0x2 2 1 [0 0] [13 4]] (REQUEST)
D 0.021836035 _3_ MAC  COL 0 AODV 106 [0 ffffffff 1 800] [energy 89.993276 ei 0.003 es 0.000 et 0.000 er 0.003] ------- [1:255 -1:255 29 0] [0x2 2 1 [0 0] [13 4]] (REQUEST)
D 0.021836036 _3_ MAC  COL 0 AODV 106 [0 ffffffff 14 800] [energy 89.993276 ei 0.003 es 0.000 et 0.000 er 0.003] ------- [20:255 -1:255 29 0] [0x2 2 4 [3 0] [13 10]] (REQUEST)
D 0.021836038 _28_ MAC  COL 0 AODV 106 [0 ffffffff 1 800] [energy 89.993276 ei 0.003 es 0.000 et 0.000 er 0.003] ------- [1:255 -1:255 29 0] [0x2 2 1 [0 0] [13 4]] (REQUEST)
D 0.021836042 _48_ MAC  COL 0 AODV 106 [0 ffffffff 14 800] [energy 89.993277 ei 0.003 es 0.000 et 0.000 er 0.003] ------- [20:255 -1:255 29 0] [0x2 2 4 [3 0] [13 10]] (REQUEST)
D 0.021836076 _8_ MAC  COL 0 AODV 106 [0 ffffffff 14 800] [energy 89.993277 ei 0.003 es 0.000 et 0.000 er 0.003] ------- [20:255 -1:255 29 0] [0x2 2 4 [3 0] [13 10]] (REQUEST)
D 0.021836082 _28_ MAC  COL 0 AODV 106 [0 ffffffff 14 800] [energy 89.993276 ei 0.003 es 0.000 et 0.000 er 0.003] ------- [20:255 -1:255 29 0] [0x2 2 4 [3 0] [13 10]] (REQUEST)
D 0.021836091 _17_ MAC  COL 0 AODV 106 [0 ffffffff 1 800] [energy 89.993276 ei 0.003 es 0.000 et 0.000 er 0.003] ------- [1:255 -1:255 29 0] [0x2 2 1 [0 0] [13 4]] (REQUEST)
D 0.021836108 _38_ MAC  COL 0 AODV 106 [0 ffffffff 14 800] [energy 89.993277 ei 0.003 es 0.000 et 0.000 er 0.003] ------- [20:255 -1:255 29 0] [0x2 2 4 [3 0] [13 10]] (REQUEST)
D 0.021836131 _13_ MAC  COL 0 AODV 106 [0 ffffffff 14 800] [energy 89.991581 ei 0.003 es 0.000 et 0.002 er 0.003] ------- [20:255 -1:255 29 0] [0x2 2 4 [3 0] [13 10]] (REQUEST)
D 0.021836158 _44_ MAC  COL 0 AODV 106 [0 ffffffff 1 800] [energy 89.993277 ei 0.003 es 0.000 et 0.000 er 0.003] ------- [1:255 -1:255 29 0] [0x2 2 1 [0 0] [13 4]] (REQUEST)
D 0.021836179 _18_ MAC  COL 0 AODV 106 [0 ffffffff 1 800] [energy 89.992429 ei 0.003 es 0.000 et 0.001 er 0.003] ------- [1:255 -1:255 29 0] [0x2 2 1 [0 0] [13 4]] (REQUEST)
D 0.021836188 _36_ MAC  COL 0 AODV 106 [0 ffffffff 1 800] [energy 89.992428 ei 0.003 es 0.000 et 0.001 er 0.003] ------- [1:255 -1:255 29 0] [0x2 2 1 [0 0] [13 4]] (REQUEST)
D 0.021836204 _23_ MAC  COL 0 AODV 106 [0 ffffffff 14 800] [energy 89.993277 ei 0.003 es 0.000 et 0.000 er 0.003] ------- [20:255 -1:255 29 0] [0x2 2 4 [3 0] [13 10]] (REQUEST)
D 0.021836209 _53_ MAC  COL 0 AODV 106 [0 ffffffff 14 800] [energy 89.992428 ei 0.003 es 0.000 et 0.001 er 0.003] ------- [20:255 -1:255 29 0] [0x2 2 4 [3 0] [13 10]] (REQUEST)
D 0.021836224 _39_ MAC  COL 0 AODV 106 [0 ffffffff 14 800] [energy 89.992429 ei 0.003 es 0.000 et 0.001 er 0.003] ------- [20:255 -1:255 29 0] [0x2 2 4 [3 0] [13 10]] (REQUEST)
D 0.021836235 _45_ MAC  COL 0 AODV 106 [0 ffffffff 1 800] [energy 89.993276 ei 0.003 es 0.000 et 0.000 er 0.003] ------- [1:255 -1:255 29 0] [0x2 2 1 [0 0] [13 4]] (REQUEST)