n -t * -s 4  -x 0 -y 0 -Z 0 -z 20+i*10  -v circle -c green
n -t * -s 5  -x 0 -y 0 -Z 0 -z 20+i*10  -v circle -c green
n -t * -s 6  -x 0 -y 0 -Z 0 -z 20+i*10  -v circle -c green
n -t * -s 7  -x 0 -y 0 -Z 0 -z 20+i*10  -v circle -c green
n -t * -s 8  -x 0 -y 0 -Z 0 -z 20+i*10  -v circle -c green
n -t * -s 9  -x 0 -y 0 -Z 0 -z 20+i*10  -v circle -c green
n -t * -s 10  -x 0 -y 0 -Z 0 -z 20+i*10  -v circle -c green
n -t * -s 11  -x 0 -y 0 -Z 0 -z 20+i*10  -v circle -c green
n -t * -s 12  -x 0 -y 0 -Z 0 -z 20+i*10  -v circle -c green
n -t * -s 13  -x 0 -y 0 -Z 0 -z 20+i*10  -v circle -c green
n -t * -s 14  -x 0 -y 0 -Z 0 -z 20+i*10  -v circle -c green
n -t * -s 15  -x 0 -y 0 -Z 0 -z 20+i*10  -v circle -c green
n -t * -s 16  -x 0 -y 0 -Z 0 -z 20+i*10  -v circle -c green
n -t * -s 17  -x 0 -y 0 -Z 0 -z 20+i*10  -v circle -c green
n -t * -s 18  -x 0 -y 0 -Z 0 -z 20+i*10  -v circle -c green
n -t * -s 19  -x 0 -y 0 -Z 0 -z 20+i*10  -v circle -c green
n -t * -s 20  -x 0 -y 0 -Z 0 -z 20+i*10  -v circle -c green
n -t * -s 21  -x 0 -y 0 -Z 0 -z 20+i*10  -v circle -c green
n -t * -s 22  -x 0 -y 0 -Z 0 -z 20+i*10  -v circle -c green
n -t * -s 23  -x 0 -y 0 -Z 0 -z 20+i*10  -v circle -c green
n -t * -s 24  -x 0 -y 0 -Z 0 -z 20+i*10  -v circle -c green
n -t * -s 25  -x 0 -y 0 -Z 0 -z 20+i*10  -v circle -c green
n -t * -s 26  -x 0 -y 0 -Z 0 -z 20+i*10  -v circle -c green
n -t * -s 27  -x 0 -y 0 -Z 0 -z 20+i*10  -v circle -c green
n -t * -s 28  -x 0 -y 0 -Z 0 -z 20+i*10  -v circle -c green
n -t * -s 29  -x 0 -y 0 -Z 0 -z 20+i*10  -v circle -c green
n -t * -s 30  -x 0 -y 0 -Z 0 -z 20+i*10  -v circle -c green
n -t * -s 31  -x 0 -y 0 -Z 0 -z 20+i*10  -v circle -c green
n -t * -s 32  -x 0 -y 0 -Z 0 -z 20+i*10  -v circle -c green
n -t * -s 33  -x 0 -y 0 -Z 0 -z 20+i*10  -v circle -c green
n -t * -s 0  -x 36.310368061210198 -y 490.35600475983512 -Z 0 -z 30+i*10  -v circle -c green
n -t * -s 1  -x 428.37199854821523 -y 76.179599853781795 -Z 0 -z 30+i*10  -v circle -c green
n -t * -s 2  -x 415.53474251066092 -y 387.41737667770002 -Z 0 -z 30+i*10  -v circle -c green
n -t * -s 3  -x 371.84982210437289 -y 203.9601081958786 -Z 0 -z 30+i*10  -v circle -c green
V -t * -v 1.0a5 -a 0
W -t * -x 500 -y 500
A -t * -n 1 -p 0 -o 0xffffffff -c 31 -a 1
A -t * -h 1 -m 2147483647 -s 0
c -t * -i 0 -n brown
n -t 0 -s 4 -S COLOR -c blue -o red -i blue -I red
n -t 0 -s 5 -S COLOR -c red -o red -i red -I red
n -t 0 -s 6 -S COLOR -c darkgreen -o red -i darkgreen -I red
n -t 0 -s 7 -S COLOR -c red -o red -i red -I red
n -t 0 -s 8 -S COLOR -c blue -o red -i blue -I red
n -t 0 -s 9 -S COLOR -c red -o red -i red -I red
n -t 0 -s 10 -S COLOR -c red -o red -i red -I red
n -t 0 -s 11 -S COLOR -c red -o red -i red -I red
n -t 0 -s 12 -S COLOR -c red -o red -i red -I red
n -t 0 -s 13 -S COLOR -c red -o red -i red -I red
n -t 0 -s 14 -S COLOR -c red -o red -i red -I red
n -t 0 -s 15 -S COLOR -c darkgreen -o red -i darkgreen -I red
n -t 0 -s 16 -S COLOR -c darkgreen -o red -i darkgreen -I red
n -t 0 -s 17 -S COLOR -c red -o red -i red -I red
n -t 0 -s 18 -S COLOR -c blue -o red -i blue -I red
n -t 0 -s 19 -S COLOR -c blue -o red -i blue -I red
n -t 0 -s 20 -S COLOR -c red -o red -i red -I red
n -t 0 -s 21 -S COLOR -c red -o red -i red -I red
n -t 0 -s 22 -S COLOR -c blue -o red -i blue -I red
n -t 0 -s 23 -S COLOR -c blue -o red -i blue -I red
n -t 0 -s 24 -S COLOR -c darkgreen -o red -i darkgreen -I red
n -t 0 -s 25 -S COLOR -c darkgreen -o red -i darkgreen -I red
n -t 0 -s 26 -S COLOR -c darkgreen -o red -i darkgreen -I red
n -t 0 -s 27 -S COLOR -c red -o red -i red -I red
n -t 0 -s 28 -S COLOR -c blue -o red -i blue -I red
n -t 0 -s 29 -S COLOR -c blue -o red -i blue -I red
n -t 0 -s 30 -S COLOR -c red -o red -i red -I red
n -t 0 -s 31 -S COLOR -c red -o red -i red -I red
n -t 0 -s 32 -S COLOR -c blue -o red -i blue -I red
n -t 0 -s 33 -S COLOR -c blue -o red -i blue -I red
n -t 0 -s 34 -S COLOR -c darkgreen -o red -i darkgreen -I red
n -t 0 -s 35 -S COLOR -c darkgreen -o red -i darkgreen -I red
n -t 0 -s 36 -S COLOR -c darkgreen -o red -i darkgreen -I red
n -t 0 -s 37 -S COLOR -c red -o red -i red -I red
n -t 0 -s 38 -S COLOR -c blue -o red -i blue -I red
n -t 0 -s 39 -S COLOR -c blue -o red -i blue -I red
n -t 0 -s 40 -S COLOR -c red -o red -i red -I red
n -t 0 -s 41 -S COLOR -c red -o red -i red -I red
n -t 0 -s 42 -S COLOR -c blue -o red -i blue -I red
n -t 0 -s 43 -S COLOR -c blue -o red -i blue -I red
n -t 0.000000 -s 0 -x 36.310368 -y 490.356005 -U 5927.371008 -V -8053.960078 -T 0.036051
n -t 0.000000 -s 1 -x 428.371999 -y 76.179600 -U -6232.360100 -V 7820.338073 -T 0.028620
n -t 0.000000 -s 2 -x 415.534743 -y 387.417377 -U -8432.024093 -V -5375.962211 -T 0.025561
n -t 0.000000 -s 3 -x 371.849822 -y 203.960108 -U -8419.732910 -V 5395.192094 -T 0.008534
n -t 0.000000 -s 4 -x 0.000000 -y 0.000000 -U 7071.067812 -V 7071.067812 -T 0.007071
n -t 0.000000 -s 5 -x 0.000000 -y 0.000000 -U 3162.277660 -V 9486.832981 -T 0.015811
n -t 0.000000 -s 6 -x 0.000000 -y 0.000000 -U 7338.085482 -V 6793.563238 -T 0.038566
n -t 0.000000 -s 7 -x 0.000000 -y 0.000000 -U 1414.213562 -V 9899.494937 -T 0.035355
n -t 0.000000 -s 8 -x 0.000000 -y 0.000000 -U 1104.315261 -V 9938.837347 -T 0.045277
n -t 0.000000 -s 9 -x 0.000000 -y 0.000000 -U 9486.832981 -V 3162.277660 -T 0.015811
n -t 0.000000 -s 10 -x 0.000000 -y 0.000000 -U 7172.793809 -V 6967.856843 -T 0.019518
n -t 0.000000 -s 11 -x 0.000000 -y 0.000000 -U 5564.908302 -V 8308.537512 -T 0.038635
n -t 0.000000 -s 12 -x 0.000000 -y 0.000000 -U 3939.192986 -V 9191.450300 -T 0.038079
n -t 0.000000 -s 13 -x 0.000000 -y 0.000000 -U 3162.277660 -V 9486.832981 -T 0.047434
n -t 0.000000 -s 14 -x 0.000000 -y 0.000000 -U 7323.057872 -V 6809.759423 -T 0.029223
n -t 0.000000 -s 15 -x 0.000000 -y 0.000000 -U 8137.334712 -V 5812.381937 -T 0.045592
n -t 0.000000 -s 16 -x 0.000000 -y 0.000000 -U 7071.067812 -V 7071.067812 -T 0.035355
n -t 0.000000 -s 17 -x 0.000000 -y 0.000000 -U 9998.000600 -V 199.960012 -T 0.025005
n -t 0.000000 -s 18 -x 0.000000 -y 0.000000 -U 4856.429312 -V 8741.572761 -T 0.051478
n -t 0.000000 -s 19 -x 0.000000 -y 0.000000 -U 995.037190 -V 9950.371902 -T 0.005025
n -t 0.000000 -s 20 -x 0.000000 -y 0.000000 -U 333.148302 -V 9994.449070 -T 0.015008
n -t 0.000000 -s 21 -x 0.000000 -y 0.000000 -U 199.960012 -V 9998.000600 -T 0.025005
n -t 0.000000 -s 22 -x 0.000000 -y 0.000000 -U 7071.067812 -V 7071.067812 -T 0.000707
n -t 0.000000 -s 23 -x 0.000000 -y 0.000000 -U 111.104253 -V 9999.382773 -T 0.045003
n -t 0.000000 -s 24 -x 0.000000 -y 0.000000 -U 9938.837347 -V 1104.315261 -T 0.045277
n -t 0.000000 -s 25 -x 0.000000 -y 0.000000 -U 9486.832981 -V 3162.277660 -T 0.047434
n -t 0.000000 -s 26 -x 0.000000 -y 0.000000 -U 8741.572761 -V 4856.429312 -T 0.051478
n -t 0.000000 -s 27 -x 0.000000 -y 0.000000 -U 9999.382773 -V 111.104253 -T 0.045003
n -t 0.000000 -s 28 -x 0.000000 -y 0.000000 -U 7071.067812 -V 7071.067812 -T 0.063640
n -t 0.000000 -s 29 -x 0.000000 -y 0.000000 -U 7071.067812 -V 7071.067812 -T 0.000014
n -t 0.000000 -s 30 -x 0.000000 -y 0.000000 -U 9997.531778 -V 222.167373 -T 0.045011
n -t 0.000000 -s 31 -x 0.000000 -y 0.000000 -U 8940.685598 -V 4479.301402 -T 0.055812
n -t 0.000000 -s 32 -x 0.000000 -y 0.000000 -U 9999.498032 -V 100.195371 -T 0.049903
n -t 0.000000 -s 33 -x 0.000000 -y 0.000000 -U 9576.676757 -V 2878.760548 -T 0.052106
n -t 0.000000 -s 34 -x 0.000000 -y 0.000000 -U 9945.054529 -V 1046.847845 -T 0.047762
n -t 0.000000 -s 35 -x 0.000000 -y 0.000000 -U 9429.903336 -V 3328.201177 -T 0.045069
n -t 0.000000 -s 36 -x 0.000000 -y 0.000000 -U 8320.502943 -V 5547.001962 -T 0.045069
n -t 0.000000 -s 37 -x 0.000000 -y 0.000000 -U 9998.347517 -V 181.788137 -T 0.027505
n -t 0.000000 -s 38 -x 0.000000 -y 0.000000 -U 5214.500095 -V 8532.818337 -T 0.052738
n -t 0.000000 -s 39 -x 0.000000 -y 0.000000 -U 9999.980080 -V 19.960040 -T 0.005010
n -t 0.000000 -s 40 -x 0.000000 -y 0.000000 -U 9987.523389 -V 499.376169 -T 0.020025
n -t 0.000000 -s 41 -x 0.000000 -y 0.000000 -U 7917.147213 -V 6108.909887 -T 0.040924
n -t 0.000000 -s 42 -x 0.000000 -y 0.000000 -U 9997.509700 -V 223.158699 -T 0.022406
n -t 0.000000 -s 43 -x 0.000000 -y 0.000000 -U 9187.360473 -V 3948.722266 -T 0.037987
n -t 0 -s 4 -S DLABEL -l "SENDER_NODE" -L ""
n -t 0 -s 8 -S DLABEL -l "SENDER_NODE" -L ""
n -t 0 -s 6 -S DLABEL -l "RECEIVER_NODE" -L ""
n -t 0 -s 15 -S DLABEL -l "RECEIVER_NODE" -L ""
n -t 0 -s 0 -S DLABEL -l "BASE_STATION" -L ""
n -t 0 -s 0 -S COLOR -c blue -o green -i blue -I green
n -t 0 -s 1 -S DLABEL -l "BASE_STATION" -L ""
n -t 0 -s 1 -S COLOR -c blue -o green -i blue -I green
n -t 0 -s 2 -S DLABEL -l "BASE_STATION" -L ""
n -t 0 -s 2 -S COLOR -c blue -o green -i blue -I green
n -t 0 -s 3 -S DLABEL -l "BASE_STATION" -L ""
n -t 0 -s 3 -S COLOR -c blue -o green -i blue -I green
+ -t 0.100000000 -s 7 -d -1 -p cbr -e 800 -c 2 -a 0 -i 0 -k AGT 
- -t 0.100000000 -s 7 -d -1 -p cbr -e 800 -c 2 -a 0 -i 0 -k AGT
h -t 0.100000000 -s 7 -d -1 -p cbr -e 800 -c 2 -a 0 -i 0 -k AGT
+ -t 0.100000000 -s 7 -d -1 -p AODV -e 48 -c 2 -a 0 -i 0 -k RTR 
- -t 0.100000000 -s 7 -d -1 -p AODV -e 48 -c 2 -a 0 -i 0 -k RTR
h -t 0.100000000 -s 7 -d -1 -p AODV -e 48 -c 2 -a 0 -i 0 -k RTR
+ -t 0.100195000 -s 7 -d -1 -p AODV -e 106 -c 2 -a 0 -i 0 -k MAC 
- -t 0.100195000 -s 7 -d -1 -p AODV -e 106 -c 2 -a 0 -i 0 -k MAC
h -t 0.100195000 -s 7 -d -1 -p AODV -e 106 -c 2 -a 0 -i 0 -k MAC
r -t 0.101043333 -s 8 -d -1 -p AODV -e 48 -c 2 -a 0 -i 0 -k MAC
r -t 0.101043333 -s 12 -d -1 -p AODV -e 48 -c 2 -a 0 -i 0 -k MAC
r -t 0.101043366 -s 21 -d -1 -p AODV -e 48 -c 2 -a 0 -i 0 -k MAC
r -t 0.101043366 -s 23 -d -1 -p AODV -e 48 -c 2 -a 0 -i 0 -k MAC
r -t 0.101043471 -s 13 -d -1 -p AODV -e 48 -c 2 -a 0 -i 0 -k MAC
r -t 0.101043558 -s 11 -d -1 -p AODV -e 48 -c 2 -a 0 -i 0 -k MAC
r -t 0.101043601 -s 2 -d -1 -p AODV -e 48 -c 2 -a 0 -i 0 -k MAC
r -t 0.101043667 -s 5 -d -1 -p AODV -e 48 -c 2 -a 0 -i 0 -k MAC
r -t 0.101043683 -s 20 -d -1 -p AODV -e 48 -c 2 -a 0 -i 0 -k MAC
r -t 0.101043687 -s 1 -d -1 -p AODV -e 48 -c 2 -a 0 -i 0 -k MAC
r -t 0.101043743 -s 14 -d -1 -p AODV -e 48 -c 2 -a 0 -i 0 -k MAC
r -t 0.101043745 -s 16 -d -1 -p AODV -e 48 -c 2 -a 0 -i 0 -k MAC
r -t 0.101043745 -s 18 -d -1 -p AODV -e 48 -c 2 -a 0 -i 0 -k MAC
r -t 0.101043774 -s 10 -d -1 -p AODV -e 48 -c 2 -a 0 -i 0 -k MAC
r -t 0.101043821 -s 38 -d -1 -p AODV -e 48 -c 2 -a 0 -i 0 -k MAC
r -t 0.101043830 -s 6 -d -1 -p AODV -e 48 -c 2 -a 0 -i 0 -k MAC
r -t 0.101043833 -s 0 -d -1 -p AODV -e 48 -c 2 -a 0 -i 0 -k MAC
r -t 0.101068333 -s 8 -d -1 -p AODV -e 48 -c 2 -a 0 -i 0 -k RTR
r -t 0.101068333 -s 12 -d -1 -p AODV -e 48 -c 2 -a 0 -i 0 -k RTR
r -t 0.101068366 -s 21 -d -1 -p AODV -e 48 -c 2 -a 0 -i 0 -k RTR
r -t 0.101068366 -s 23 -d -1 -p AODV -e 48 -c 2 -a 0 -i 0 -k RTR
r -t 0.101068471 -s 13 -d -1 -p AODV -e 48 -c 2 -a 0 -i 0 -k RTR
r -t 0.101068558 -s 11 -d -1 -p AODV -e 48 -c 2 -a 0 -i 0 -k RTR
r -t 0.101068601 -s 2 -d -1 -p AODV -e 48 -c 2 -a 0 -i 0 -k RTR
r -t 0.101068667 -s 5 -d -1 -p AODV -e 48 -c 2 -a 0 -i 0 -k RTR
r -t 0.101068683 -s 20 -d -1 -p AODV -e 48 -c 2 -a 0 -i 0 -k RTR
r -t 0.101068687 -s 1 -d -1 -p AODV -e 48 -c 2 -a 0 -i 0 -k RTR
r -t 0.101068743 -s 14 -d -1 -p AODV -e 48 -c 2 -a 0 -i 0 -k RTR
r -t 0.101068745 -s 16 -d -1 -p AODV -e 48 -c 2 -a 0 -i 0 -k RTR
r -t 0.101068745 -s 18 -d -1 -p AODV -e 48 -c 2 -a 0 -i 0 -k RTR
r -t 0.101068774 -s 10 -d -1 -p AODV -e 48 -c 2 -a 0 -i 0 -k RTR
r -t 0.101068821 -s 38 -d -1 -p AODV -e 48 -c 2 -a 0 -i 0 -k RTR
r -t 0.101068830 -s 6 -d -1 -p AODV -e 48 -c 2 -a 0 -i 0 -k RTR
r -t 0.101068833 -s 0 -d -1 -p AODV -e 48 -c 2 -a 0 -i 0 -k RTR
+ -t 0.101068833 -s 0 -d 7 -p AODV -e 44 -c 2 -a 0 -i 0 -k RTR 
- -t 0.101068833 -s 0 -d 7 -p AODV -e 44 -c 2 -a 0 -i 0 -k RTR
h -t 0.101068833 -s 0 -d 7 -p AODV -e 44 -c 2 -a 0 -i 0 -k RTR
+ -t 0.101143833 -s 0 -d -1 -p ARP -e 86 -c 2 -a 0 -i 0 -k MAC 
- -t 0.101143833 -s 0 -d -1 -p ARP -e 86 -c 2 -a 0 -i 0 -k MAC
h -t 0.101143833 -s 0 -d -1 -p ARP -e 86 -c 2 -a 0 -i 0 -k MAC
+ -t 0.101344318 -s 14 -d -1 -p AODV -e 48 -c 2 -a 0 -i 0 -k RTR 
- -t 0.101344318 -s 14 -d -1 -p AODV -e 48 -c 2 -a 0 -i 0 -k RTR
h -t 0.101344318 -s 14 -d -1 -p AODV -e 48 -c 2 -a 0 -i 0 -k RTR
r -t 0.101831953 -s 14 -d -1 -p ARP -e 28 -c 2 -a 0 -i 0 -k MAC
r -t 0.101832000 -s 16 -d -1 -p ARP -e 28 -c 2 -a 0 -i 0 -k MAC
r -t 0.101832067 -s 6 -d -1 -p ARP -e 28 -c 2 -a 0 -i 0 -k MAC
r -t 0.101832069 -s 2 -d -1 -p ARP -e 28 -c 2 -a 0 -i 0 -k MAC
r -t 0.101832069 -s 3 -d -1 -p ARP -e 28 -c 2 -a 0 -i 0 -k MAC
r -t 0.101832131 -s 41 -d -1 -p ARP -e 28 -c 2 -a 0 -i 0 -k MAC
r -t 0.101832167 -s 1 -d -1 -p ARP -e 28 -c 2 -a 0 -i 0 -k MAC
r -t 0.101832203 -s 43 -d -1 -p ARP -e 28 -c 2 -a 0 -i 0 -k MAC
r -t 0.101832253 -s 11 -d -1 -p ARP -e 28 -c 2 -a 0 -i 0 -k MAC
r -t 0.101832258 -s 10 -d -1 -p ARP -e 28 -c 2 -a 0 -i 0 -k MAC
r -t 0.101832282 -s 36 -d -1 -p ARP -e 28 -c 2 -a 0 -i 0 -k MAC
r -t 0.101832291 -s 15 -d -1 -p ARP -e 28 -c 2 -a 0 -i 0 -k MAC
r -t 0.101832434 -s 9 -d -1 -p ARP -e 28 -c 2 -a 0 -i 0 -k MAC
r -t 0.101832434 -s 12 -d -1 -p ARP -e 28 -c 2 -a 0 -i 0 -k MAC
r -t 0.101832440 -s 35 -d -1 -p ARP -e 28 -c 2 -a 0 -i 0 -k MAC
r -t 0.101832483 -s 17 -d -1 -p ARP -e 28 -c 2 -a 0 -i 0 -k MAC
r -t 0.101832488 -s 40 -d -1 -p ARP -e 28 -c 2 -a 0 -i 0 -k MAC
r -t 0.101832489 -s 37 -d -1 -p ARP -e 28 -c 2 -a 0 -i 0 -k MAC
r -t 0.101832489 -s 42 -d -1 -p ARP -e 28 -c 2 -a 0 -i 0 -k MAC
r -t 0.101832521 -s 5 -d -1 -p ARP -e 28 -c 2 -a 0 -i 0 -k MAC
r -t 0.101832521 -s 26 -d -1 -p ARP -e 28 -c 2 -a 0 -i 0 -k MAC
r -t 0.101832521 -s 25 -d -1 -p ARP -e 28 -c 2 -a 0 -i 0 -k MAC
r -t 0.101832667 -s 7 -d -1 -p ARP -e 28 -c 2 -a 0 -i 0 -k MAC
r -t 0.101832667 -s 4 -d -1 -p ARP -e 28 -c 2 -a 0 -i 0 -k MAC
r -t 0.101832667 -s 18 -d -1 -p ARP -e 28 -c 2 -a 0 -i 0 -k MAC
r -t 0.101832667 -s 24 -d -1 -p ARP -e 28 -c 2 -a 0 -i 0 -k MAC
+ -t 0.102182667 -s 7 -d -1 -p RTS -e 44 -c 2 -a 0 -i 0 -k MAC 
- -t 0.102182667 -s 7 -d -1 -p RTS -e 44 -c 2 -a 0 -i 0 -k MAC
h -t 0.102182667 -s 7 -d -1 -p RTS -e 44 -c 2 -a 0 -i 0 -k MAC
+ -t 0.102299368 -s 12 -d -1 -p AODV -e 48 -c 2 -a 0 -i 0 -k RTR 
- -t 0.102299368 -s 12 -d -1 -p AODV -e 48 -c 2 -a 0 -i 0 -k RTR
h -t 0.102299368 -s 12 -d -1 -p AODV -e 48 -c 2 -a 0 -i 0 -k RTR
r -t 0.102535500 -s 0 -d -1 -p RTS -e 44 -c 2 -a 0 -i 0 -k MAC
+ -t 0.102545500 -s 0 -d -1 -p CTS -e 38 -c 2 -a 0 -i 0 -k MAC 
- -t 0.102545500 -s 0 -d -1 -p CTS -e 38 -c 2 -a 0 -i 0 -k MAC
h -t 0.102545500 -s 0 -d -1 -p CTS -e 38 -c 2 -a 0 -i 0 -k MAC
r -t 0.102850333 -s 7 -d -1 -p CTS -e 38 -c 2 -a 0 -i 0 -k MAC
+ -t 0.102860333 -s 7 -d -1 -p ARP -e 86 -c 2 -a 0 -i 0 -k MAC 
- -t 0.102860333 -s 7 -d -1 -p ARP -e 86 -c 2 -a 0 -i 0 -k MAC
h -t 0.102860333 -s 7 -d -1 -p ARP -e 86 -c 2 -a 0 -i 0 -k MAC
+ -t 0.102930888 -s 18 -d -1 -p AODV -e 48 -c 2 -a 0 -i 0 -k RTR 
- -t 0.102930888 -s 18 -d -1 -p AODV -e 48 -c 2 -a 0 -i 0 -k RTR
h -t 0.102930888 -s 18 -d -1 -p AODV -e 48 -c 2 -a 0 -i 0 -k RTR
r -t 0.103549167 -s 0 -d -1 -p ARP -e 28 -c 2 -a 0 -i 0 -k MAC
+ -t 0.103559167 -s 0 -d -1 -p ACK -e 38 -c 2 -a 0 -i 0 -k MAC 
- -t 0.103559167 -s 0 -d -1 -p ACK -e 38 -c 2 -a 0 -i 0 -k MAC
h -t 0.103559167 -s 0 -d -1 -p ACK -e 38 -c 2 -a 0 -i 0 -k MAC
+ -t 0.103638303 -s 23 -d -1 -p AODV -e 48 -c 2 -a 0 -i 0 -k RTR 
- -t 0.103638303 -s 23 -d -1 -p AODV -e 48 -c 2 -a 0 -i 0 -k RTR
h -t 0.103638303 -s 23 -d -1 -p AODV -e 48 -c 2 -a 0 -i 0 -k RTR
+ -t 0.103686908 -s 5 -d -1 -p AODV -e 48 -c 2 -a 0 -i 0 -k RTR 
- -t 0.103686908 -s 5 -d -1 -p AODV -e 48 -c 2 -a 0 -i 0 -k RTR
h -t 0.103686908 -s 5 -d -1 -p AODV -e 48 -c 2 -a 0 -i 0 -k RTR
r -t 0.103864000 -s 7 -d -1 -p ACK -e 38 -c 2 -a 0 -i 0 -k MAC
+ -t 0.104033167 -s 0 -d -1 -p RTS -e 44 -c 2 -a 0 -i 0 -k MAC 
- -t 0.104033167 -s 0 -d -1 -p RTS -e 44 -c 2 -a 0 -i 0 -k MAC
h -t 0.104033167 -s 0 -d -1 -p RTS -e 44 -c 2 -a 0 -i 0 -k MAC
+ -t 0.104033768 -s 12 -d -1 -p AODV -e 106 -c 2 -a 0 -i 0 -k MAC 
- -t 0.104033768 -s 12 -d -1 -p AODV -e 106 -c 2 -a 0 -i 0 -k MAC
h -t 0.104033768 -s 12 -d -1 -p AODV -e 106 -c 2 -a 0 -i 0 -k MAC
d -t 0.104034101 -s 7 -d -1 -p RTS -e 44 -c 2 -a 0 -i 0 -k MAC
+ -t 0.104341915 -s 16 -d -1 -p AODV -e 48 -c 2 -a 0 -i 0 -k RTR 
- -t 0.104341915 -s 16 -d -1 -p AODV -e 48 -c 2 -a 0 -i 0 -k RTR
h -t 0.104341915 -s 16 -d -1 -p AODV -e 48 -c 2 -a 0 -i 0 -k RTR
+ -t 0.104424961 -s 8 -d -1 -p AODV -e 48 -c 2 -a 0 -i 0 -k RTR 
- -t 0.104424961 -s 8 -d -1 -p AODV -e 48 -c 2 -a 0 -i 0 -k RTR
h -t 0.104424961 -s 8 -d -1 -p AODV -e 48 -c 2 -a 0 -i 0 -k RTR
d -t 0.104882005 -s 11 -d -1 -p AODV -e 106 -c 2 -a 0 -i 0 -k MAC
d -t 0.104882101 -s 13 -d -1 -p AODV -e 106 -c 2 -a 0 -i 0 -k MAC
d -t 0.104882101 -s 7 -d -1 -p AODV -e 106 -c 2 -a 0 -i 0 -k MAC
d -t 0.104882140 -s 2 -d -1 -p AODV -e 106 -c 2 -a 0 -i 0 -k MAC
d -t 0.104882140 -s 1 -d -1 -p AODV -e 106 -c 2 -a 0 -i 0 -k MAC
d -t 0.104882239 -s 8 -d -1 -p AODV -e 106 -c 2 -a 0 -i 0 -k MAC
d -t 0.104882239 -s 18 -d -1 -p AODV -e 106 -c 2 -a 0 -i 0 -k MAC
d -t 0.104882301 -s 38 -d -1 -p AODV -e 106 -c 2 -a 0 -i 0 -k MAC
d -t 0.104882355 -s 21 -d -1 -p AODV -e 106 -c 2 -a 0 -i 0 -k MAC
d -t 0.104882355 -s 23 -d -1 -p AODV -e 106 -c 2 -a 0 -i 0 -k MAC
d -t 0.104882482 -s 10 -d -1 -p AODV -e 106 -c 2 -a 0 -i 0 -k MAC
d -t 0.104882513 -s 5 -d -1 -p AODV -e 106 -c 2 -a 0 -i 0 -k MAC
d -t 0.104882557 -s 15 -d -1 -p AODV -e 106 -c 2 -a 0 -i 0 -k MAC
d -t 0.104882591 -s 20 -d -1 -p AODV -e 106 -c 2 -a 0 -i 0 -k MAC
+ -t 0.105325560 -s 1 -d -1 -p AODV -e 48 -c 2 -a 0 -i 0 -k RTR 
- -t 0.105325560 -s 1 -d -1 -p AODV -e 48 -c 2 -a 0 -i 0 -k RTR
h -t 0.105325560 -s 1 -d -1 -p AODV -e 48 -c 2 -a 0 -i 0 -k RTR
+ -t 0.105336355 -s 23 -d -1 -p AODV -e 106 -c 2 -a 0 -i 0 -k MAC 
- -t 0.105336355 -s 23 -d -1 -p AODV -e 106 -c 2 -a 0 -i 0 -k MAC
h -t 0.105336355 -s 23 -d -1 -p AODV -e 106 -c 2 -a 0 -i 0 -k MAC
r -t 0.106184505 -s 8 -d -1 -p AODV -e 48 -c 2 -a 0 -i 0 -k MAC
r -t 0.106184720 -s 7 -d -1 -p AODV -e 48 -c 2 -a 0 -i 0 -k MAC
r -t 0.106184838 -s 13 -d -1 -p AODV -e 48 -c 2 -a 0 -i 0 -k MAC
r -t 0.106184942 -s 12 -d -1 -p AODV -e 48 -c 2 -a 0 -i 0 -k MAC
r -t 0.106185021 -s 21 -d -1 -p AODV -e 48 -c 2 -a 0 -i 0 -k MAC
r -t 0.106185171 -s 18 -d -1 -p AODV -e 48 -c 2 -a 0 -i 0 -k MAC
r -t 0.106185176 -s 11 -d -1 -p AODV -e 48 -c 2 -a 0 -i 0 -k MAC
r -t 0.106209505 -s 8 -d -1 -p AODV -e 48 -c 2 -a 0 -i 0 -k RTR
r -t 0.106209720 -s 7 -d -1 -p AODV -e 48 -c 2 -a 0 -i 0 -k RTR
r -t 0.106209838 -s 13 -d -1 -p AODV -e 48 -c 2 -a 0 -i 0 -k RTR
r -t 0.106209942 -s 12 -d -1 -p AODV -e 48 -c 2 -a 0 -i 0 -k RTR
r -t 0.106210021 -s 21 -d -1 -p AODV -e 48 -c 2 -a 0 -i 0 -k RTR
r -t 0.106210171 -s 18 -d -1 -p AODV -e 48 -c 2 -a 0 -i 0 -k RTR
r -t 0.106210176 -s 11 -d -1 -p AODV -e 48 -c 2 -a 0 -i 0 -k RTR
+ -t 0.106274505 -s 8 -d -1 -p AODV -e 106 -c 2 -a 0 -i 0 -k MAC 
- -t 0.106274505 -s 8 -d -1 -p AODV -e 106 -c 2 -a 0 -i 0 -k MAC
h -t 0.106274505 -s 8 -d -1 -p AODV -e 106 -c 2 -a 0 -i 0 -k MAC
+ -t 0.106516778 -s 11 -d -1 -p AODV -e 48 -c 2 -a 0 -i 0 -k RTR 
- -t 0.106516778 -s 11 -d -1 -p AODV -e 48 -c 2 -a 0 -i 0 -k RTR
h -t 0.106516778 -s 11 -d -1 -p AODV -e 48 -c 2 -a 0 -i 0 -k RTR
+ -t 0.106617080 -s 20 -d -1 -p AODV -e 48 -c 2 -a 0 -i 0 -k RTR 
- -t 0.106617080 -s 20 -d -1 -p AODV -e 48 -c 2 -a 0 -i 0 -k RTR
h -t 0.106617080 -s 20 -d -1 -p AODV -e 48 -c 2 -a 0 -i 0 -k RTR
r -t 0.107122655 -s 23 -d -1 -p AODV -e 48 -c 2 -a 0 -i 0 -k MAC
r -t 0.107122838 -s 7 -d -1 -p AODV -e 48 -c 2 -a 0 -i 0 -k MAC
r -t 0.107122838 -s 13 -d -1 -p AODV -e 48 -c 2 -a 0 -i 0 -k MAC
r -t 0.107122976 -s 12 -d -1 -p AODV -e 48 -c 2 -a 0 -i 0 -k MAC
r -t 0.107123171 -s 18 -d -1 -p AODV -e 48 -c 2 -a 0 -i 0 -k MAC
r -t 0.107123188 -s 21 -d -1 -p AODV -e 48 -c 2 -a 0 -i 0 -k MAC
r -t 0.107123203 -s 11 -d -1 -p AODV -e 48 -c 2 -a 0 -i 0 -k MAC
r -t 0.107123255 -s 38 -d -1 -p AODV -e 48 -c 2 -a 0 -i 0 -k MAC
r -t 0.107123338 -s 2 -d -1 -p AODV -e 48 -c 2 -a 0 -i 0 -k MAC
r -t 0.107123338 -s 1 -d -1 -p AODV -e 48 -c 2 -a 0 -i 0 -k MAC
r -t 0.107147655 -s 23 -d -1 -p AODV -e 48 -c 2 -a 0 -i 0 -k RTR
r -t 0.107147838 -s 7 -d -1 -p AODV -e 48 -c 2 -a 0 -i 0 -k RTR
r -t 0.107147838 -s 13 -d -1 -p AODV -e 48 -c 2 -a 0 -i 0 -k RTR
r -t 0.107147976 -s 12 -d -1 -p AODV -e 48 -c 2 -a 0 -i 0 -k RTR
r -t 0.107148171 -s 18 -d -1 -p AODV -e 48 -c 2 -a 0 -i 0 -k RTR
r -t 0.107148188 -s 21 -d -1 -p AODV -e 48 -c 2 -a 0 -i 0 -k RTR
r -t 0.107148203 -s 11 -d -1 -p AODV -e 48 -c 2 -a 0 -i 0 -k RTR
r -t 0.107148255 -s 38 -d -1 -p AODV -e 48 -c 2 -a 0 -i 0 -k RTR
r -t 0.107148338 -s 2 -d -1 -p AODV -e 48 -c 2 -a 0 -i 0 -k RTR
r -t 0.107148338 -s 1 -d -1 -p AODV -e 48 -c 2 -a 0 -i 0 -k RTR
+ -t 0.107233338 -s 1 -d -1 -p AODV -e 106 -c 2 -a 0 -i 0 -k MAC 
- -t 0.107233338 -s 1 -d -1 -p AODV -e 106 -c 2 -a 0 -i 0 -k MAC
h -t 0.107233338 -s 1 -d -1 -p AODV -e 106 -c 2 -a 0 -i 0 -k MAC
+ -t 0.107754604 -s 21 -d -1 -p AODV -e 48 -c 2 -a 0 -i 0 -k RTR 
- -t 0.107754604 -s 21 -d -1 -p AODV -e 48 -c 2 -a 0 -i 0 -k RTR
h -t 0.107754604 -s 21 -d -1 -p AODV -e 48 -c 2 -a 0 -i 0 -k RTR
+ -t 0.108055204 -s 13 -d -1 -p AODV -e 48 -c 2 -a 0 -i 0 -k RTR 
- -t 0.108055204 -s 13 -d -1 -p AODV -e 48 -c 2 -a 0 -i 0 -k RTR
h -t 0.108055204 -s 13 -d -1 -p AODV -e 48 -c 2 -a 0 -i 0 -k RTR
r -t 0.108081474 -s 11 -d -1 -p AODV -e 48 -c 2 -a 0 -i 0 -k MAC
r -t 0.108081505 -s 16 -d -1 -p AODV -e 48 -c 2 -a 0 -i 0 -k MAC
r -t 0.108081506 -s 6 -d -1 -p AODV -e 48 -c 2 -a 0 -i 0 -k MAC
r -t 0.108081574 -s 2 -d -1 -p AODV -e 48 -c 2 -a 0 -i 0 -k MAC
r -t 0.108081574 -s 3 -d -1 -p AODV -e 48 -c 2 -a 0 -i 0 -k MAC
r -t 0.108081636 -s 41 -d -1 -p AODV -e 48 -c 2 -a 0 -i 0 -k MAC
r -t 0.108081671 -s 0 -d -1 -p AODV -e 48 -c 2 -a 0 -i 0 -k MAC
r -t 0.108081695 -s 14 -d -1 -p AODV -e 48 -c 2 -a 0 -i 0 -k MAC
r -t 0.108081711 -s 12 -d -1 -p AODV -e 48 -c 2 -a 0 -i 0 -k MAC
r -t 0.108081758 -s 15 -d -1 -p AODV -e 48 -c 2 -a 0 -i 0 -k MAC
r -t 0.108081787 -s 36 -d -1 -p AODV -e 48 -c 2 -a 0 -i 0 -k MAC
r -t 0.108081838 -s 18 -d -1 -p AODV -e 48 -c 2 -a 0 -i 0 -k MAC
r -t 0.108081845 -s 38 -d -1 -p AODV -e 48 -c 2 -a 0 -i 0 -k MAC
r -t 0.108081937 -s 43 -d -1 -p AODV -e 48 -c 2 -a 0 -i 0 -k MAC
r -t 0.108081939 -s 13 -d -1 -p AODV -e 48 -c 2 -a 0 -i 0 -k MAC
r -t 0.108081996 -s 10 -d -1 -p AODV -e 48 -c 2 -a 0 -i 0 -k MAC
r -t 0.108082025 -s 7 -d -1 -p AODV -e 48 -c 2 -a 0 -i 0 -k MAC
r -t 0.108082025 -s 26 -d -1 -p AODV -e 48 -c 2 -a 0 -i 0 -k MAC
r -t 0.108082106 -s 35 -d -1 -p AODV -e 48 -c 2 -a 0 -i 0 -k MAC
r -t 0.108082171 -s 5 -d -1 -p AODV -e 48 -c 2 -a 0 -i 0 -k MAC
r -t 0.108082171 -s 8 -d -1 -p AODV -e 48 -c 2 -a 0 -i 0 -k MAC
r -t 0.108082171 -s 28 -d -1 -p AODV -e 48 -c 2 -a 0 -i 0 -k MAC
r -t 0.108082171 -s 25 -d -1 -p AODV -e 48 -c 2 -a 0 -i 0 -k MAC
r -t 0.108106474 -s 11 -d -1 -p AODV -e 48 -c 2 -a 0 -i 0 -k RTR
r -t 0.108106505 -s 16 -d -1 -p AODV -e 48 -c 2 -a 0 -i 0 -k RTR
r -t 0.108106506 -s 6 -d -1 -p AODV -e 48 -c 2 -a 0 -i 0 -k RTR
r -t 0.108106574 -s 2 -d -1 -p AODV -e 48 -c 2 -a 0 -i 0 -k RTR
r -t 0.108106574 -s 3 -d -1 -p AODV -e 48 -c 2 -a 0 -i 0 -k RTR
r -t 0.108106636 -s 41 -d -1 -p AODV -e 48 -c 2 -a 0 -i 0 -k RTR
r -t 0.108106671 -s 0 -d -1 -p AODV -e 48 -c 2 -a 0 -i 0 -k RTR
r -t 0.108106695 -s 14 -d -1 -p AODV -e 48 -c 2 -a 0 -i 0 -k RTR
r -t 0.108106711 -s 12 -d -1 -p AODV -e 48 -c 2 -a 0 -i 0 -k RTR
r -t 0.108106758 -s 15 -d -1 -p AODV -e 48 -c 2 -a 0 -i 0 -k RTR
r -t 0.108106787 -s 36 -d -1 -p AODV -e 48 -c 2 -a 0 -i 0 -k RTR
r -t 0.108106838 -s 18 -d -1 -p AODV -e 48 -c 2 -a 0 -i 0 -k RTR
r -t 0.108106845 -s 38 -d -1 -p AODV -e 48 -c 2 -a 0 -i 0 -k RTR
r -t 0.108106937 -s 43 -d -1 -p AODV -e 48 -c 2 -a 0 -i 0 -k RTR
r -t 0.108106939 -s 13 -d -1 -p AODV -e 48 -c 2 -a 0 -i 0 -k RTR
r -t 0.108106996 -s 10 -d -1 -p AODV -e 48 -c 2 -a 0 -i 0 -k RTR
r -t 0.108107025 -s 7 -d -1 -p AODV -e 48 -c 2 -a 0 -i 0 -k RTR
r -t 0.108107025 -s 26 -d -1 -p AODV -e 48 -c 2 -a 0 -i 0 -k RTR
r -t 0.108107106 -s 35 -d -1 -p AODV -e 48 -c 2 -a 0 -i 0 -k RTR
r -t 0.108107171 -s 5 -d -1 -p AODV -e 48 -c 2 -a 0 -i 0 -k RTR
r -t 0.108107171 -s 8 -d -1 -p AODV -e 48 -c 2 -a 0 -i 0 -k RTR
r -t 0.108107171 -s 28 -d -1 -p AODV -e 48 -c 2 -a 0 -i 0 -k RTR
r -t 0.108107171 -s 25 -d -1 -p AODV -e 48 -c 2 -a 0 -i 0 -k RTR
+ -t 0.108108917 -s 28 -d -1 -p AODV -e 48 -c 2 -a 0 -i 0 -k RTR 
- -t 0.108108917 -s 28 -d -1 -p AODV -e 48 -c 2 -a 0 -i 0 -k RTR
h -t 0.108108917 -s 28 -d -1 -p AODV -e 48 -c 2 -a 0 -i 0 -k RTR
+ -t 0.108171671 -s 0 -d -1 -p RTS -e 44 -c 2 -a 0 -i 0 -k MAC 
- -t 0.108171671 -s 0 -d -1 -p RTS -e 44 -c 2 -a 0 -i 0 -k MAC
h -t 0.108171671 -s 0 -d -1 -p RTS -e 44 -c 2 -a 0 -i 0 -k MAC
+ -t 0.108171838 -s 18 -d -1 -p AODV -e 106 -c 2 -a 0 -i 0 -k MAC 
- -t 0.108171838 -s 18 -d -1 -p AODV -e 106 -c 2 -a 0 -i 0 -k MAC
h -t 0.108171838 -s 18 -d -1 -p AODV -e 106 -c 2 -a 0 -i 0 -k MAC
d -t 0.108172583 -s 7 -d -1 -p RTS -e 44 -c 2 -a 0 -i 0 -k MAC
+ -t 0.108795788 -s 6 -d -1 -p AODV -e 48 -c 2 -a 0 -i 0 -k RTR 
- -t 0.108795788 -s 6 -d -1 -p AODV -e 48 -c 2 -a 0 -i 0 -k RTR
h -t 0.108795788 -s 6 -d -1 -p AODV -e 48 -c 2 -a 0 -i 0 -k RTR
+ -t 0.108918645 -s 10 -d -1 -p AODV -e 48 -c 2 -a 0 -i 0 -k RTR 
- -t 0.108918645 -s 10 -d -1 -p AODV -e 48 -c 2 -a 0 -i 0 -k RTR
h -t 0.108918645 -s 10 -d -1 -p AODV -e 48 -c 2 -a 0 -i 0 -k RTR
+ -t 0.108941470 -s 25 -d -1 -p AODV -e 48 -c 2 -a 0 -i 0 -k RTR 
- -t 0.108941470 -s 25 -d -1 -p AODV -e 48 -c 2 -a 0 -i 0 -k RTR
h -t 0.108941470 -s 25 -d -1 -p AODV -e 48 -c 2 -a 0 -i 0 -k RTR
r -t 0.109019921 -s 38 -d -1 -p AODV -e 48 -c 2 -a 0 -i 0 -k MAC
r -t 0.109020171 -s 13 -d -1 -p AODV -e 48 -c 2 -a 0 -i 0 -k MAC
d -t 0.109020284 -s 11 -d -1 -p AODV -e 106 -c 2 -a 0 -i 0 -k MAC
d -t 0.109020309 -s 12 -d -1 -p AODV -e 106 -c 2 -a 0 -i 0 -k MAC
d -t 0.109020338 -s 1 -d -1 -p AODV -e 106 -c 2 -a 0 -i 0 -k MAC
d -t 0.109020505 -s 8 -d -1 -p AODV -e 106 -c 2 -a 0 -i 0 -k MAC
d -t 0.109020505 -s 28 -d -1 -p AODV -e 106 -c 2 -a 0 -i 0 -k MAC
d -t 0.109020575 -s 15 -d -1 -p AODV -e 106 -c 2 -a 0 -i 0 -k MAC
d -t 0.109020583 -s 7 -d -1 -p AODV -e 106 -c 2 -a 0 -i 0 -k MAC
d -t 0.109020624 -s 36 -d -1 -p AODV -e 106 -c 2 -a 0 -i 0 -k MAC
d -t 0.109020655 -s 23 -d -1 -p AODV -e 106 -c 2 -a 0 -i 0 -k MAC
r -t 0.109044921 -s 38 -d -1 -p AODV -e 48 -c 2 -a 0 -i 0 -k RTR
r -t 0.109045171 -s 13 -d -1 -p AODV -e 48 -c 2 -a 0 -i 0 -k RTR
+ -t 0.109150171 -s 13 -d -1 -p AODV -e 106 -c 2 -a 0 -i 0 -k MAC 
- -t 0.109150171 -s 13 -d -1 -p AODV -e 106 -c 2 -a 0 -i 0 -k MAC
h -t 0.109150171 -s 13 -d -1 -p AODV -e 106 -c 2 -a 0 -i 0 -k MAC
+ -t 0.109606671 -s 36 -d -1 -p AODV -e 48 -c 2 -a 0 -i 0 -k RTR 
- -t 0.109606671 -s 36 -d -1 -p AODV -e 48 -c 2 -a 0 -i 0 -k RTR
h -t 0.109606671 -s 36 -d -1 -p AODV -e 48 -c 2 -a 0 -i 0 -k RTR
+ -t 0.109835158 -s 2 -d -1 -p AODV -e 48 -c 2 -a 0 -i 0 -k RTR 
- -t 0.109835158 -s 2 -d -1 -p AODV -e 48 -c 2 -a 0 -i 0 -k RTR
h -t 0.109835158 -s 2 -d -1 -p AODV -e 48 -c 2 -a 0 -i 0 -k RTR
r -t 0.109998505 -s 8 -d -1 -p AODV -e 48 -c 2 -a 0 -i 0 -k MAC
r -t 0.109998505 -s 12 -d -1 -p AODV -e 48 -c 2 -a 0 -i 0 -k MAC
r -t 0.109998505 -s 18 -d -1 -p AODV -e 48 -c 2 -a 0 -i 0 -k MAC
r -t 0.109998588 -s 38 -d -1 -p AODV -e 48 -c 2 -a 0 -i 0 -k MAC
r -t 0.109998643 -s 7 -d -1 -p AODV -e 48 -c 2 -a 0 -i 0 -k MAC
r -t 0.109998653 -s 11 -d -1 -p AODV -e 48 -c 2 -a 0 -i 0 -k MAC
r -t 0.109998655 -s 23 -d -1 -p AODV -e 48 -c 2 -a 0 -i 0 -k MAC
r -t 0.109998772 -s 1 -d -1 -p AODV -e 48 -c 2 -a 0 -i 0 -k MAC
r -t 0.109998859 -s 2 -d -1 -p AODV -e 48 -c 2 -a 0 -i 0 -k MAC
r -t 0.109998917 -s 16 -d -1 -p AODV -e 48 -c 2 -a 0 -i 0 -k MAC
r -t 0.109998939 -s 6 -d -1 -p AODV -e 48 -c 2 -a 0 -i 0 -k MAC
r -t 0.109998995 -s 21 -d -1 -p AODV -e 48 -c 2 -a 0 -i 0 -k MAC
r -t 0.109999005 -s 3 -d -1 -p AODV -e 48 -c 2 -a 0 -i 0 -k MAC
r -t 0.110023505 -s 8 -d -1 -p AODV -e 48 -c 2 -a 0 -i 0 -k RTR
r -t 0.110023505 -s 12 -d -1 -p AODV -e 48 -c 2 -a 0 -i 0 -k RTR
r -t 0.110023505 -s 18 -d -1 -p AODV -e 48 -c 2 -a 0 -i 0 -k RTR
r -t 0.110023588 -s 38 -d -1 -p AODV -e 48 -c 2 -a 0 -i 0 -k RTR
r -t 0.110023643 -s 7 -d -1 -p AODV -e 48 -c 2 -a 0 -i 0 -k RTR
r -t 0.110023653 -s 11 -d -1 -p AODV -e 48 -c 2 -a 0 -i 0 -k RTR
r -t 0.110023655 -s 23 -d -1 -p AODV -e 48 -c 2 -a 0 -i 0 -k RTR
r -t 0.110023772 -s 1 -d -1 -p AODV -e 48 -c 2 -a 0 -i 0 -k RTR
r -t 0.110023859 -s 2 -d -1 -p AODV -e 48 -c 2 -a 0 -i 0 -k RTR
r -t 0.110023917 -s 16 -d -1 -p AODV -e 48 -c 2 -a 0 -i 0 -k RTR
r -t 0.110023939 -s 6 -d -1 -p AODV -e 48 -c 2 -a 0 -i 0 -k RTR
r -t 0.110023995 -s 21 -d -1 -p AODV -e 48 -c 2 -a 0 -i 0 -k RTR
r -t 0.110024005 -s 3 -d -1 -p AODV -e 48 -c 2 -a 0 -i 0 -k RTR
+ -t 0.110048859 -s 2 -d -1 -p AODV -e 106 -c 2 -a 0 -i 0 -k MAC 
- -t 0.110048859 -s 2 -d -1 -p AODV -e 106 -c 2 -a 0 -i 0 -k MAC
h -t 0.110048859 -s 2 -d -1 -p AODV -e 106 -c 2 -a 0 -i 0 -k MAC
+ -t 0.110536983 -s 38 -d -1 -p AODV -e 48 -c 2 -a 0 -i 0 -k RTR 
- -t 0.110536983 -s 38 -d -1 -p AODV -e 48 -c 2 -a 0 -i 0 -k RTR
h -t 0.110536983 -s 38 -d -1 -p AODV -e 48 -c 2 -a 0 -i 0 -k RTR
r -t 0.110897025 -s 16 -d -1 -p AODV -e 48 -c 2 -a 0 -i 0 -k MAC
r -t 0.110897035 -s 14 -d -1 -p AODV -e 48 -c 2 -a 0 -i 0 -k MAC
r -t 0.110897094 -s 0 -d -1 -p AODV -e 48 -c 2 -a 0 -i 0 -k MAC
r -t 0.110897094 -s 1 -d -1 -p AODV -e 48 -c 2 -a 0 -i 0 -k MAC
r -t 0.110897100 -s 11 -d -1 -p AODV -e 48 -c 2 -a 0 -i 0 -k MAC
r -t 0.110897138 -s 6 -d -1 -p AODV -e 48 -c 2 -a 0 -i 0 -k MAC
r -t 0.110897192 -s 3 -d -1 -p AODV -e 48 -c 2 -a 0 -i 0 -k MAC
r -t 0.110897231 -s 12 -d -1 -p AODV -e 48 -c 2 -a 0 -i 0 -k MAC
r -t 0.110897272 -s 41 -d -1 -p AODV -e 48 -c 2 -a 0 -i 0 -k MAC
r -t 0.110897288 -s 10 -d -1 -p AODV -e 48 -c 2 -a 0 -i 0 -k MAC
r -t 0.110897431 -s 15 -d -1 -p AODV -e 48 -c 2 -a 0 -i 0 -k MAC
r -t 0.110897442 -s 36 -d -1 -p AODV -e 48 -c 2 -a 0 -i 0 -k MAC
r -t 0.110897457 -s 43 -d -1 -p AODV -e 48 -c 2 -a 0 -i 0 -k MAC
r -t 0.110897459 -s 7 -d -1 -p AODV -e 48 -c 2 -a 0 -i 0 -k MAC
r -t 0.110897459 -s 5 -d -1 -p AODV -e 48 -c 2 -a 0 -i 0 -k MAC
r -t 0.110897509 -s 21 -d -1 -p AODV -e 48 -c 2 -a 0 -i 0 -k MAC
r -t 0.110897546 -s 9 -d -1 -p AODV -e 48 -c 2 -a 0 -i 0 -k MAC