D 0.004009444 _16_ MAC  COL 0 AODV 106 [0 ffffffff a 800] [energy 89.998641 ei 0.001 es 0.000 et 0.000 er 0.001] ------- [10:255 -1:255 29 0] [0x2 2 1 [0 0] [13 4]] (REQUEST)
D 0.004009480 _29_ MAC  COL 0 AODV 106 [0 ffffffff a 800] [energy 89.998641 ei 0.001 es 0.000 et 0.000 er 0.001] ------- [10:255 -1:255 29 0] [0x2 2 1 [0 0] [13 4]] (REQUEST)
D 0.004009482 _22_ MAC  COL 0 AODV 106 [0 ffffffff e 800] [energy 89.998641 ei 0.001 es 0.000 et 0.000 er 0.001] ------- [14:255 -1:255 29 0] [0x2 2 1 [5 0] [53 4]] (REQUEST)
D 0.004009499 _32_ MAC  COL 0 AODV 106 [0 ffffffff e 800] [energy 89.998641 ei 0.001 es 0.000 et 0.000 er 0.001] ------- [14:255 -1:255 29 0] [0x2 2 1 [5 0] [53 4]] (REQUEST)
D 0.004009510 _40_ MAC  COL 0 AODV 106 [0 ffffffff e 800] [energy 89.997793 ei 0.001 es 0.000 et 0.001 er 0.001] ------- [14:255 -1:255 29 0] [0x2 2 1 [5 0] [53 4]] (REQUEST)
D 0.004009522 _11_ MAC  COL 0 AODV 106 [0 ffffffff e 800] [energy 89.998641 ei 0.001 es 0.000 et 0.000 er 0.001] ------- [14:255 -1:255 29 0] [0x2 2 1 [5 0] [53 4]] (REQUEST)
D 0.004009561 _41_ MAC  COL 0 AODV 106 [0 ffffffff e 800] [energy 89.998641 ei 0.001 es 0.000 et 0.000 er 0.001] ------- [14:255 -1:255 29 0] [0x2 2 1 [5 0] [53 4]] (REQUEST)
D 0.004009568 _18_ MAC  COL 0 AODV 106 [0 ffffffff a 800] [energy 89.998640 ei 0.001 es 0.000 et 0.000 er 0.001] ------- [10:255 -1:255 29 0] [0x2 2 1 [0 0] [13 4]] (REQUEST)
D 0.004009644 _47_ MAC  COL 0 AODV 106 [0 ffffffff e 800] [energy 89.998640 ei 0.001 es 0.000 et 0.000 er 0.001] ------- [14:255 -1:255 29 0] [0x2 2 1 [5 0] [53 4]] (REQUEST)
D 0.004009699 _46_ MAC  COL 0 AODV 106 [0 ffffffff e 800] [energy 89.998640 ei 0.001 es 0.000 et 0.000 er 0.001] ------- [14:255 -1:255 29 0] [0x2 2 1 [5 0] [53 4]] (REQUEST)
D 0.004009741 _13_ MAC  COL 0 AODV 106 [0 ffffffff a 800] [energy 89.996944 ei 0.001 es 0.000 et 0.002 er 0.000] ------- [10:255 -1:255 29 0] [0x2 2 1 [0 0] [13 4]] (REQUEST)
D 0.004009761 _42_ MAC  COL 0 AODV 106 [0 ffffffff e 800] [energy 89.998640 ei 0.001 es 0.000 et 0.000 er 0.001] ------- [14:255 -1:255 29 0] [0x2 2 1 [5 0] [53 4]] (REQUEST)
D 0.004009761 _2_ MAC  COL 0 AODV 106 [0 ffffffff e 800] [energy 89.998640 ei 0.001 es 0.000 et 0.000 er 0.001] ------- [14:255 -1:255 29 0] [0x2 2 1 [5 0] [53 4]] (REQUEST)
D 0.004009766 _43_ MAC  COL 0 AODV 106 [0 ffffffff e 800] [energy 89.998640 ei 0.001 es 0.000 et 0.000 er 0.001] ------- [14:255 -1:255 29 0] [0x2 2 1 [5 0] [53 4]] (REQUEST)
D 0.004009830 _49_ MAC  COL 0 AODV 106 [0 ffffffff e 800] [energy 89.998640 ei 0.001 es 0.000 et 0.000 er 0.001] ------- [14:255 -1:255 29 0] [0x2 2 1 [5 0] [53 4]] (REQUEST)
D 0.004009887 _53_ MAC  COL 0 AODV 106 [0 ffffffff a 800] [energy 89.997792 ei 0.001 es 0.000 et 0.001 er 0.001] ------- [10:255 -1:255 29 0] [0x2 2 1 [0 0] [13 4]] (REQUEST)
D 0.004009901 _20_ MAC  COL 0 AODV 106 [0 ffffffff e 800] [energy 89.998640 ei 0.001 es 0.000 et 0.000 er 0.001] ------- [14:255 -1:255 29 0] [0x2 2 1 [5 0] [53 4]] (REQUEST)
D 0.004009912 _0_ MAC  COL 0 AODV 106 [0 ffffffff a 800] [energy 89.998640 ei 0.001 es 0.000 et 0.000 er 0.001] ------- [10:255 -1:255 29 0] [0x2 2 1 [0 0] [13 4]] (REQUEST)
D 0.004009915 _52_ MAC  COL 0 AODV 106 [0 ffffffff e 800] [energy 89.998640 ei 0.001 es 0.000 et 0.000 er 0.001] ------- [14:255 -1:255 29 0] [0x2 2 1 [5 0] [53 4]] (REQUEST)
D 0.004009919 _25_ MAC  COL 0 AODV 106 [0 ffffffff e 800] [energy 89.998640 ei 0.001 es 0.000 et 0.000 er 0.001] ------- [14:255 -1:255 29 0] [0x2 2 1 [5 0] [53 4]] (REQUEST)
D 0.004009935 _5_ MAC  COL 0 AODV 106 [0 ffffffff e 800] [energy 89.998640 ei 0.001 es 0.000 et 0.000 er 0.001] ------- [14:255 -1:255 29 0] [0x2 2 1 [5 0] [53 4]] (REQUEST)
D 0.004009937 _48_ MAC  COL 0 AODV 106 [0 ffffffff e 800] [energy 89.998640 ei 0.001 es 0.000 et 0.000 er 0.001] ------- [14:255 -1:255 29 0] [0x2 2 1 [5 0] [53 4]] (REQUEST)
D 0.004009982 _50_ MAC  COL 0 AODV 106 [0 ffffffff e 800] [energy 89.998640 ei 0.001 es 0.000 et 0.000 er 0.001] ------- [14:255 -1:255 29 0] [0x2 2 1 [5 0] [53 4]] (REQUEST)
D 0.004009985 _15_ MAC  COL 0 AODV 106 [0 ffffffff e 800] [energy 89.998640 ei 0.001 es 0.000 et 0.000 er 0.001] ------- [14:255 -1:255 29 0] [0x2 2 1 [5 0] [53 4]] (REQUEST)
D 0.004010012 _19_ MAC  COL 0 AODV 106 [0 ffffffff e 800] [energy 89.998640 ei 0.001 es 0.000 et 0.000 er 0.001] ------- [14:255 -1:255 29 0] [0x2 2 1 [5 0] [53 4]] (REQUEST)
D 0.004010038 _9_ MAC  COL 0 AODV 106 [0 ffffffff e 800] [energy 89.998640 ei 0.001 es 0.000 et 0.000 er 0.001] ------- [14:255 -1:255 29 0] [0x2 2 1 [5 0] [53 4]] (REQUEST)
D 0.004010044 _34_ MAC  COL 0 AODV 106 [0 ffffffff e 800] [energy 89.998640 ei 0.001 es 0.000 et 0.000 er 0.001] ------- [14:255 -1:255 29 0] [0x2 2 1 [5 0] [53 4]] (REQUEST)
D 0.004010082 _12_ MAC  COL 0 AODV 106 [0 ffffffff e 800] [energy 89.998640 ei 0.001 es 0.000 et 0.000 er 0.001] ------- [14:255 -1:255 29 0] [0x2 2 1 [5 0] [53 4]] (REQUEST)
D 0.004857444 _16_ MAC  COL 0 AODV 106 [0 ffffffff e 800] [energy 89.998641 ei 0.001 es 0.000 et 0.000 er 0.001] ------- [14:255 -1:255 29 0] [0x2 2 1 [5 0] [53 4]] (REQUEST)
D 0.004857480 _29_ MAC  COL 0 AODV 106 [0 ffffffff e 800] [energy 89.998641 ei 0.001 es 0.000 et 0.000 er 0.001] ------- [14:255 -1:255 29 0] [0x2 2 1 [5 0] [53 4]] (REQUEST)
D 0.004857482 _22_ MAC  COL 0 AODV 106 [0 ffffffff a 800] [energy 89.998641 ei 0.001 es 0.000 et 0.000 er 0.001] ------- [10:255 -1:255 29 0] [0x2 2 1 [0 0] [13 4]] (REQUEST)
D 0.004857499 _32_ MAC  COL 0 AODV 106 [0 ffffffff a 800] [energy 89.998641 ei 0.001 es 0.000 et 0.000 er 0.001] ------- [10:255 -1:255 29 0] [0x2 2 1 [0 0] [13 4]] (REQUEST)
D 0.004857510 _40_ MAC  COL 0 AODV 106 [0 ffffffff a 800] [energy 89.997793 ei 0.001 es 0.000 et 0.001 er 0.001] ------- [10:255 -1:255 29 0] [0x2 2 1 [0 0] [13 4]] (REQUEST)
D 0.004857522 _11_ MAC  COL 0 AODV 106 [0 ffffffff a 800] [energy 89.998641 ei 0.001 es 0.000 et 0.000 er 0.001] ------- [10:255 -1:255 29 0] [0x2 2 1 [0 0] [13 4]] (REQUEST)
D 0.004857561 _41_ MAC  COL 0 AODV 106 [0 ffffffff a 800] [energy 89.998641 ei 0.001 es 0.000 et 0.000 er 0.001] ------- [10:255 -1:255 29 0] [0x2 2 1 [0 0] [13 4]] (REQUEST)
D 0.004857568 _18_ MAC  COL 0 AODV 106 [0 ffffffff e 800] [energy 89.998640 ei 0.001 es 0.000 et 0.000 er 0.001] ------- [14:255 -1:255 29 0] [0x2 2 1 [5 0] [53 4]] (REQUEST)
D 0.004857644 _47_ MAC  COL 0 AODV 106 [0 ffffffff a 800] [energy 89.998640 ei 0.001 es 0.000 et 0.000 er 0.001] ------- [10:255 -1:255 29 0] [0x2 2 1 [0 0] [13 4]] (REQUEST)
D 0.004857699 _46_ MAC  COL 0 AODV 106 [0 ffffffff a 800] [energy 89.998640 ei 0.001 es 0.000 et 0.000 er 0.001] ------- [10:255 -1:255 29 0] [0x2 2 1 [0 0] [13 4]] (REQUEST)
D 0.004857741 _13_ MAC  COL 0 AODV 106 [0 ffffffff e 800] [energy 89.996944 ei 0.001 es 0.000 et 0.002 er 0.000] ------- [14:255 -1:255 29 0] [0x2 2 1 [5 0] [53 4]] (REQUEST)
D 0.004857761 _42_ MAC  COL 0 AODV 106 [0 ffffffff a 800] [energy 89.998640 ei 0.001 es 0.000 et 0.000 er 0.001] ------- [10:255 -1:255 29 0] [0x2 2 1 [0 0] [13 4]] (REQUEST)
D 0.004857761 _2_ MAC  COL 0 AODV 106 [0 ffffffff a 800] [energy 89.998640 ei 0.001 es 0.000 et 0.000 er 0.001] ------- [10:255 -1:255 29 0] [0x2 2 1 [0 0] [13 4]] (REQUEST)
D 0.004857766 _43_ MAC  COL 0 AODV 106 [0 ffffffff a 800] [energy 89.998640 ei 0.001 es 0.000 et 0.000 er 0.001] ------- [10:255 -1:255 29 0] [0x2 2 1 [0 0] [13 4]] (REQUEST)
D 0.004857830 _49_ MAC  COL 0 AODV 106 [0 ffffffff a 800] [energy 89.998640 ei 0.001 es 0.000 et 0.000 er 0.001] ------- [10:255 -1:255 29 0] [0x2 2 1 [0 0] [13 4]] (REQUEST)
D 0.004857887 _53_ MAC  COL 0 AODV 106 [0 ffffffff e 800] [energy 89.997792 ei 0.001 es 0.000 et 0.001 er 0.001] ------- [14:255 -1:255 29 0] [0x2 2 1 [5 0] [53 4]] (REQUEST)
D 0.004857901 _20_ MAC  COL 0 AODV 106 [0 ffffffff a 800] [energy 89.998640 ei 0.001 es 0.000 et 0.000 er 0.001] ------- [10:255 -1:255 29 0] [0x2 2 1 [0 0] [13 4]] (REQUEST)
D 0.004857912 _0_ MAC  COL 0 AODV 106 [0 ffffffff e 800] [energy 89.998640 ei 0.001 es 0.000 et 0.000 er 0.001] ------- [14:255 -1:255 29 0] [0x2 2 1 [5 0] [53 4]] (REQUEST)
D 0.004857915 _52_ MAC  COL 0 AODV 106 [0 ffffffff a 800] [energy 89.998640 ei 0.001 es 0.000 et 0.000 er 0.001] ------- [10:255 -1:255 29 0] [0x2 2 1 [0 0] [13 4]] (REQUEST)
D 0.004857919 _25_ MAC  COL 0 AODV 106 [0 ffffffff a 800] [energy 89.998640 ei 0.001 es 0.000 et 0.000 er 0.001] ------- [10:255 -1:255 29 0] [0x2 2 1 [0 0] [13 4]] (REQUEST)
D 0.004857935 _5_ MAC  COL 0 AODV 106 [0 ffffffff a 800] [energy 89.998640 ei 0.001 es 0.000 et 0.000 er 0.001] ------- [10:255 -1:255 29 0] [0x2 2 1 [0 0] [13 4]] (REQUEST)
D 0.004857937 _48_ MAC  COL 0 AODV 106 [0 ffffffff a 800] [energy 89.998640 ei 0.001 es 0.000 et 0.000 er 0.001] ------- [10:255 -1:255 29 0] [0x2 2 1 [0 0] [13 4]] (REQUEST)
D 0.004857982 _50_ MAC  COL 0 AODV 106 [0 ffffffff a 800] [energy 89.998640 ei 0.001 es 0.000 et 0.000 er 0.001] ------- [10:255 -1:255 29 0] [0x2 2 1 [0 0] [13 4]] (REQUEST)
D 0.004857985 _15_ MAC  COL 0 AODV 106 [0 ffffffff a 800] [energy 89.998640 ei 0.001 es 0.000 et 0.000 er 0.001] ------- [10:255 -1:255 29 0] [0x2 2 1 [0 0] [13 4]] (REQUEST)
D 0.004858012 _19_ MAC  COL 0 AODV 106 [0 ffffffff a 800] [energy 89.998640 ei 0.001 es 0.000 et 0.000 er 0.001] ------- [10:255 -1:255 29 0] [0x2 2 1 [0 0] [13 4]] (REQUEST)
D 0.007148395 _19_ MAC  COL 0 AODV 106 [0 ffffffff 9 800] [energy 89.997601 ei 0.001 es 0.000 et 0.000 er 0.001] ------- [9:255 -1:255 28 0] [0x2 3 1 [0 0] [13 4]] (REQUEST)
D 0.007148441 _30_ MAC  COL 0 AODV 106 [0 ffffffff 9 800] [energy 89.997600 ei 0.001 es 0.000 et 0.000 er 0.001] ------- [9:255 -1:255 28 0] [0x2 3 1 [0 0] [13 4]] (REQUEST)
D 0.007148559 _31_ MAC  COL 0 AODV 106 [0 ffffffff 19 800] [energy 89.997600 ei 0.001 es 0.000 et 0.000 er 0.001] ------- [25:255 -1:255 29 0] [0x2 2 1 [0 0] [13 4]] (REQUEST)
D 0.007148570 _52_ MAC  COL 0 AODV 106 [0 ffffffff 9 800] [energy 89.996752 ei 0.001 es 0.000 et 0.001 er 0.001] ------- [9:255 -1:255 28 0] [0x2 3 1 [0 0] [13 4]] (REQUEST)
D 0.007148603 _48_ MAC  COL 0 AODV 106 [0 ffffffff 9 800] [energy 89.997600 ei 0.001 es 0.000 et 0.000 er 0.001] ------- [9:255 -1:255 28 0] [0x2 3 1 [0 0] [13 4]] (REQUEST)
D 0.007148615 _28_ MAC  COL 0 AODV 106 [0 ffffffff 19 800] [energy 89.997600 ei 0.001 es 0.000 et 0.000 er 0.001] ------- [25:255 -1:255 29 0] [0x2 2 1 [0 0] [13 4]] (REQUEST)
D 0.007148621 _35_ MAC  COL 0 AODV 106 [0 ffffffff 19 800] [energy 89.997600 ei 0.001 es 0.000 et 0.000 er 0.001] ------- [25:255 -1:255 29 0] [0x2 2 1 [0 0] [13 4]] (REQUEST)
D 0.007148656 _8_ MAC  COL 0 AODV 106 [0 ffffffff 19 800] [energy 89.997600 ei 0.001 es 0.000 et 0.000 er 0.001] ------- [25:255 -1:255 29 0] [0x2 2 1 [0 0] [13 4]] (REQUEST)
D 0.007148656 _37_ MAC  COL 0 AODV 106 [0 ffffffff 9 800] [energy 89.997600 ei 0.001 es 0.000 et 0.000 er 0.001] ------- [9:255 -1:255 28 0] [0x2 3 1 [0 0] [13 4]] (REQUEST)
D 0.007148663 _49_ MAC  COL 0 AODV 106 [0 ffffffff 19 800] [energy 89.997600 ei 0.001 es 0.000 et 0.000 er 0.001] ------- [25:255 -1:255 29 0] [0x2 2 1 [0 0] [13 4]] (REQUEST)
D 0.007148668 _44_ MAC  COL 0 AODV 106 [0 ffffffff 19 800] [energy 89.997600 ei 0.001 es 0.000 et 0.000 er 0.001] ------- [25:255 -1:255 29 0] [0x2 2 1 [0 0] [13 4]] (REQUEST)
D 0.007148680 _24_ MAC  COL 0 AODV 106 [0 ffffffff 19 800] [energy 89.997600 ei 0.001 es 0.000 et 0.000 er 0.001] ------- [25:255 -1:255 29 0] [0x2 2 1 [0 0] [13 4]] (REQUEST)
D 0.007148725 _46_ MAC  COL 0 AODV 106 [0 ffffffff 9 800] [energy 89.997600 ei 0.001 es 0.000 et 0.000 er 0.001] ------- [9:255 -1:255 28 0] [0x2 3 1 [0 0] [13 4]] (REQUEST)
D 0.007148737 _21_ MAC  COL 0 AODV 106 [0 ffffffff 9 800] [energy 89.997600 ei 0.001 es 0.000 et 0.000 er 0.001] ------- [9:255 -1:255 28 0] [0x2 3 1 [0 0] [13 4]] (REQUEST)
D 0.007148751 _6_ MAC  COL 0 AODV 106 [0 ffffffff 9 800] [energy 89.997600 ei 0.001 es 0.000 et 0.000 er 0.001] ------- [9:255 -1:255 28 0] [0x2 3 1 [0 0] [13 4]] (REQUEST)
D 0.007148759 _3_ MAC  COL 0 AODV 106 [0 ffffffff 19 800] [energy 89.997600 ei 0.001 es 0.000 et 0.000 er 0.001] ------- [25:255 -1:255 29 0] [0x2 2 1 [0 0] [13 4]] (REQUEST)
D 0.007148760 _1_ MAC  COL 0 AODV 106 [0 ffffffff 19 800] [energy 89.997600 ei 0.001 es 0.000 et 0.000 er 0.001] ------- [25:255 -1:255 29 0] [0x2 2 1 [0 0] [13 4]] (REQUEST)
D 0.007148789 _36_ MAC  COL 0 AODV 106 [0 ffffffff 19 800] [energy 89.997600 ei 0.001 es 0.000 et 0.000 er 0.001] ------- [25:255 -1:255 29 0] [0x2 2 1 [0 0] [13 4]] (REQUEST)
D 0.007148789 _51_ MAC  COL 0 AODV 106 [0 ffffffff 19 800] [energy 89.997600 ei 0.001 es 0.000 et 0.000 er 0.001] ------- [25:255 -1:255 29 0] [0x2 2 1 [0 0] [13 4]] (REQUEST)
D 0.007148801 _53_ MAC  COL 0 AODV 106 [0 ffffffff 9 800] [energy 89.996752 ei 0.001 es 0.000 et 0.001 er 0.001] ------- [9:255 -1:255 28 0] [0x2 3 1 [0 0] [13 4]] (REQUEST)
D 0.007148804 _40_ MAC  COL 0 AODV 106 [0 ffffffff 9 800] [energy 89.996752 ei 0.001 es 0.000 et 0.001 er 0.001] ------- [9:255 -1:255 28 0] [0x2 3 1 [0 0] [13 4]] (REQUEST)
D 0.007148806 _22_ MAC  COL 0 AODV 106 [0 ffffffff 19 800] [energy 89.997600 ei 0.001 es 0.000 et 0.000 er 0.001] ------- [25:255 -1:255 29 0] [0x2 2 1 [0 0] [13 4]] (REQUEST)
D 0.007148845 _26_ MAC  COL 0 AODV 106 [0 ffffffff 19 800] [energy 89.997600 ei 0.001 es 0.000 et 0.000 er 0.001] ------- [25:255 -1:255 29 0] [0x2 2 1 [0 0] [13 4]] (REQUEST)
D 0.007148854 _23_ MAC  COL 0 AODV 106 [0 ffffffff 19 800] [energy 89.997600 ei 0.001 es 0.000 et 0.000 er 0.001] ------- [25:255 -1:255 29 0] [0x2 2 1 [0 0] [13 4]] (REQUEST)
D 0.007148858 _32_ MAC  COL 0 AODV 106 [0 ffffffff 9 800] [energy 89.997600 ei 0.001 es 0.000 et 0.000 er 0.001] ------- [9:255 -1:255 28 0] [0x2 3 1 [0 0] [13 4]] (REQUEST)
D 0.007148861 _45_ MAC  COL 0 AODV 106 [0 ffffffff 9 800] [energy 89.997600 ei 0.001 es 0.000 et 0.000 er 0.001] ------- [9:255 -1:255 28 0] [0x2 3 1 [0 0] [13 4]] (REQUEST)
D 0.007148863 _17_ MAC  COL 0 AODV 106 [0 ffffffff 9 800] [energy 89.997600 ei 0.001 es 0.000 et 0.000 er 0.001] ------- [9:255 -1:255 28 0] [0x2 3 1 [0 0] [13 4]] (REQUEST)
D 0.007148879 _43_ MAC  COL 0 AODV 106 [0 ffffffff 19 800] [energy 89.997600 ei 0.001 es 0.000 et 0.000 er 0.001] ------- [25:255 -1:255 29 0] [0x2 2 1 [0 0] [13 4]] (REQUEST)
D 0.007148880 _11_ MAC  COL 0 AODV 106 [0 ffffffff 9 800] [energy 89.997600 ei 0.001 es 0.000 et 0.000 er 0.001] ------- [9:255 -1:255 28 0] [0x2 3 1 [0 0] [13 4]] (REQUEST)
D 0.007148895 _33_ MAC  COL 0 AODV 106 [0 ffffffff 9 800] [energy 89.996752 ei 0.001 es 0.000 et 0.001 er 0.001] ------- [9:255 -1:255 28 0] [0x2 3 1 [0 0] [13 4]] (REQUEST)
D 0.007148909 _2_ MAC  COL 0 AODV 106 [0 ffffffff 19 800] [energy 89.997600 ei 0.001 es 0.000 et 0.000 er 0.001] ------- [25:255 -1:255 29 0] [0x2 2 1 [0 0] [13 4]] (REQUEST)
D 0.007148920 _18_ MAC  COL 0 AODV 106 [0 ffffffff 9 800] [energy 89.997600 ei 0.001 es 0.000 et 0.000 er 0.001] ------- [9:255 -1:255 28 0] [0x2 3 1 [0 0] [13 4]] (REQUEST)
D 0.007148931 _14_ MAC  COL 0 AODV 106 [0 ffffffff 9 800] [energy 89.996752 ei 0.001 es 0.000 et 0.001 er 0.001] ------- [9:255 -1:255 28 0] [0x2 3 1 [0 0] [13 4]] (REQUEST)
D 0.007148940 _42_ MAC  COL 0 AODV 106 [0 ffffffff 19 800] [energy 89.997600 ei 0.001 es 0.000 et 0.000 er 0.001] ------- [25:255 -1:255 29 0] [0x2 2 1 [0 0] [13 4]] (REQUEST)
D 0.007148945 _47_ MAC  COL 0 AODV 106 [0 ffffffff 19 800] [energy 89.997600 ei 0.001 es 0.000 et 0.000 er 0.001] ------- [25:255 -1:255 29 0] [0x2 2 1 [0 0] [13 4]] (REQUEST)
D 0.007148979 _7_ MAC  COL 0 AODV 106 [0 ffffffff 19 800] [energy 89.997600 ei 0.001 es 0.000 et 0.000 er 0.001] ------- [25:255 -1:255 29 0] [0x2 2 1 [0 0] [13 4]] (REQUEST)
D 0.007148992 _38_ MAC  COL 0 AODV 106 [0 ffffffff 19 800] [energy 89.997600 ei 0.001 es 0.000 et 0.000 er 0.001] ------- [25:255 -1:255 29 0] [0x2 2 1 [0 0] [13 4]] (REQUEST)
D 0.007149000 _0_ MAC  COL 0 AODV 106 [0 ffffffff 9 800] [energy 89.997600 ei 0.001 es 0.000 et 0.000 er 0.001] ------- [9:255 -1:255 28 0] [0x2 3 1 [0 0] [13 4]] (REQUEST)
D 0.007149012 _5_ MAC  COL 0 AODV 106 [0 ffffffff 19 800] [energy 89.997600 ei 0.001 es 0.000 et 0.000 er 0.001] ------- [25:255 -1:255 29 0] [0x2 2 1 [0 0] [13 4]] (REQUEST)
D 0.007149019 _13_ MAC  COL 0 AODV 106 [0 ffffffff 9 800] [energy 89.995904 ei 0.001 es 0.000 et 0.002 er 0.001] ------- [9:255 -1:255 28 0] [0x2 3 1 [0 0] [13 4]] (REQUEST)
D 0.007149021 _29_ MAC  COL 0 AODV 106 [0 ffffffff 9 800] [energy 89.997600 ei 0.001 es 0.000 et 0.000 er 0.001] ------- [9:255 -1:255 28 0] [0x2 3 1 [0 0] [13 4]] (REQUEST)
D 0.007149053 _16_ MAC  COL 0 AODV 106 [0 ffffffff 9 800] [energy 89.997600 ei 0.001 es 0.000 et 0.000 er 0.001] ------- [9:255 -1:255 28 0] [0x2 3 1 [0 0] [13 4]] (REQUEST)
D 0.007149101 _10_ MAC  COL 0 AODV 106 [0 ffffffff 9 800] [energy 89.996752 ei 0.001 es 0.000 et 0.001 er 0.001] ------- [9:255 -1:255 28 0] [0x2 3 1 [0 0] [13 4]] (REQUEST)
D 0.007996395 _19_ MAC  COL 0 AODV 106 [0 ffffffff 19 800] [energy 89.997601 ei 0.001 es 0.000 et 0.000 er 0.001] ------- [25:255 -1:255 29 0] [0x2 2 1 [0 0] [13 4]] (REQUEST)
D 0.007996441 _30_ MAC  COL 0 AODV 106 [0 ffffffff 19 800] [energy 89.997600 ei 0.001 es 0.000 et 0.000 er 0.001] ------- [25:255 -1:255 29 0] [0x2 2 1 [0 0] [13 4]] (REQUEST)
D 0.007996559 _31_ MAC  COL 0 AODV 106 [0 ffffffff 9 800] [energy 89.997600 ei 0.001 es 0.000 et 0.000 er 0.001] ------- [9:255 -1:255 28 0] [0x2 3 1 [0 0] [13 4]] (REQUEST)
D 0.007996570 _52_ MAC  COL 0 AODV 106 [0 ffffffff 19 800] [energy 89.996752 ei 0.001 es 0.000 et 0.001 er 0.001] ------- [25:255 -1:255 29 0] [0x2 2 1 [0 0] [13 4]] (REQUEST)
D 0.007996603 _48_ MAC  COL 0 AODV 106 [0 ffffffff 19 800] [energy 89.997600 ei 0.001 es 0.000 et 0.000 er 0.001] ------- [25:255 -1:255 29 0] [0x2 2 1 [0 0] [13 4]] (REQUEST)
D 0.007996615 _28_ MAC  COL 0 AODV 106 [0 ffffffff 9 800] [energy 89.997600 ei 0.001 es 0.000 et 0.000 er 0.001] ------- [9:255 -1:255 28 0] [0x2 3 1 [0 0] [13 4]] (REQUEST)
D 0.007996621 _35_ MAC  COL 0 AODV 106 [0 ffffffff 9 800] [energy 89.997600 ei 0.001 es 0.000 et 0.000 er 0.001] ------- [9:255 -1:255 28 0] [0x2 3 1 [0 0] [13 4]] (REQUEST)
D 0.007996656 _8_ MAC  COL 0 AODV 106 [0 ffffffff 9 800] [energy 89.997600 ei 0.001 es 0.000 et 0.000 er 0.001] ------- [9:255 -1:255 28 0] [0x2 3 1 [0 0] [13 4]] (REQUEST)
D 0.007996656 _37_ MAC  COL 0 AODV 106 [0 ffffffff 19 800] [energy 89.997600 ei 0.001 es 0.000 et 0.000 er 0.001] ------- [25:255 -1:255 29 0] [0x2 2 1 [0 0] [13 4]] (REQUEST)
D 0.007996663 _49_ MAC  COL 0 AODV 106 [0 ffffffff 9 800] [energy 89.997600 ei 0.001 es 0.000 et 0.000 er 0.001] ------- [9:255 -1:255 28 0] [0x2 3 1 [0 0] [13 4]] (REQUEST)
D 0.007996668 _44_ MAC  COL 0 AODV 106 [0 ffffffff 9 800] [energy 89.997600 ei 0.001 es 0.000 et 0.000 er 0.001] ------- [9:255 -1:255 28 0] [0x2 3 1 [0 0] [13 4]] (REQUEST)
D 0.007996680 _24_ MAC  COL 0 AODV 106 [0 ffffffff 9 800] [energy 89.997600 ei 0.001 es 0.000 et 0.000 er 0.001] ------- [9:255 -1:255 28 0] [0x2 3 1 [0 0] [13 4]] (REQUEST)
D 0.007996725 _46_ MAC  COL 0 AODV 106 [0 ffffffff 19 800] [energy 89.997600 ei 0.001 es 0.000 et 0.000 er 0.001] ------- [25:255 -1:255 29 0] [0x2 2 1 [0 0] [13 4]] (REQUEST)
D 0.007996737 _21_ MAC  COL 0 AODV 106 [0 ffffffff 19 800] [energy 89.997600 ei 0.001 es 0.000 et 0.000 er 0.001] ------- [25:255 -1:255 29 0] [0x2 2 1 [0 0] [13 4]] (REQUEST)
D 0.007996751 _6_ MAC  COL 0 AODV 106 [0 ffffffff 19 800] [energy 89.997600 ei 0.001 es 0.000 et 0.000 er 0.001] ------- [25:255 -1:255 29 0] [0x2 2 1 [0 0] [13 4]] (REQUEST)
D 0.007996759 _3_ MAC  COL 0 AODV 106 [0 ffffffff 9 800] [energy 89.997600 ei 0.001 es 0.000 et 0.000 er 0.001] ------- [9:255 -1:255 28 0] [0x2 3 1 [0 0] [13 4]] (REQUEST)
D 0.007996760 _1_ MAC  COL 0 AODV 106 [0 ffffffff 9 800] [energy 89.997600 ei 0.001 es 0.000 et 0.000 er 0.001] ------- [9:255 -1:255 28 0] [0x2 3 1 [0 0] [13 4]] (REQUEST)
D 0.007996789 _36_ MAC  COL 0 AODV 106 [0 ffffffff 9 800] [energy 89.997600 ei 0.001 es 0.000 et 0.000 er 0.001] ------- [9:255 -1:255 28 0] [0x2 3 1 [0 0] [13 4]] (REQUEST)
D 0.007996789 _51_ MAC  COL 0 AODV 106 [0 ffffffff 9 800] [energy 89.997600 ei 0.001 es 0.000 et 0.000 er 0.001] ------- [9:255 -1:255 28 0] [0x2 3 1 [0 0] [13 4]] (REQUEST)
D 0.007996801 _53_ MAC  COL 0 AODV 106 [0 ffffffff 19 800] [energy 89.996752 ei 0.001 es 0.000 et 0.001 er 0.001] ------- [25:255 -1:255 29 0] [0x2 2 1 [0 0] [13 4]] (REQUEST)
D 0.007996804 _40_ MAC  COL 0 AODV 106 [0 ffffffff 19 800] [energy 89.996752 ei 0.001 es 0.000 et 0.001 er 0.001] ------- [25:255 -1:255 29 0] [0x2 2 1 [0 0] [13 4]] (REQUEST)
D 0.007996806 _22_ MAC  COL 0 AODV 106 [0 ffffffff 9 800] [energy 89.997600 ei 0.001 es 0.000 et 0.000 er 0.001] ------- [9:255 -1:255 28 0] [0x2 3 1 [0 0] [13 4]] (REQUEST)
D 0.007996845 _26_ MAC  COL 0 AODV 106 [0 ffffffff 9 800] [energy 89.997600 ei 0.001 es 0.000 et 0.000 er 0.001] ------- [9:255 -1:255 28 0] [0x2 3 1 [0 0] [13 4]] (REQUEST)
D 0.007996854 _23_ MAC  COL 0 AODV 106 [0 ffffffff 9 800] [energy 89.997600 ei 0.001 es 0.000 et 0.000 er 0.001] ------- [9:255 -1:255 28 0] [0x2 3 1 [0 0] [13 4]] (REQUEST)
D 0.007996858 _32_ MAC  COL 0 AODV 106 [0 ffffffff 19 800] [energy 89.997600 ei 0.001 es 0.000 et 0.000 er 0.001] ------- [25:255 -1:255 29 0] [0x2 2 1 [0 0] [13 4]] (REQUEST)
D 0.007996861 _45_ MAC  COL 0 AODV 106 [0 ffffffff 19 800] [energy 89.997600 ei 0.001 es 0.000 et 0.000 er 0.001] ------- [25:255 -1:255 29 0] [0x2 2 1 [0 0] [13 4]] (REQUEST)
D 0.007996863 _17_ MAC  COL 0 AODV 106 [0 ffffffff 19 800] [energy 89.997600 ei 0.001 es 0.000 et 0.000 er 0.001] ------- [25:255 -1:255 29 0] [0x2 2 1 [0 0] [13 4]] (REQUEST)
D 0.007996879 _43_ MAC  COL 0 AODV 106 [0 ffffffff 9 800] [energy 89.997600 ei 0.001 es 0.000 et 0.000 er 0.001] ------- [9:255 -1:255 28 0] [0x2 3 1 [0 0] [13 4]] (REQUEST)
D 0.007996880 _11_ MAC  COL 0 AODV 106 [0 ffffffff 19 800] [energy 89.997600 ei 0.001 es 0.000 et 0.000 er 0.001] ------- [25:255 -1:255 29 0] [0x2 2 1 [0 0] [13 4]] (REQUEST)
D 0.007996895 _33_ MAC  COL 0 AODV 106 [0 ffffffff 19 800] [energy 89.996752 ei 0.001 es 0.000 et 0.001 er 0.001] ------- [25:255 -1:255 29 0] [0x2 2 1 [0 0] [13 4]] (REQUEST)
D 0.007996909 _2_ MAC  COL 0 AODV 106 [0 ffffffff 9 800] [energy 89.997600 ei 0.001 es 0.000 et 0.000 er 0.001] ------- [9:255 -1:255 28 0] [0x2 3 1 [0 0] [13 4]] (REQUEST)
D 0.007996920 _18_ MAC  COL 0 AODV 106 [0 ffffffff 19 800] [energy 89.997600 ei 0.001 es 0.000 et 0.000 er 0.001] ------- [25:255 -1:255 29 0] [0x2 2 1 [0 0] [13 4]] (REQUEST)
D 0.007996931 _14_ MAC  COL 0 AODV 106 [0 ffffffff 19 800] [energy 89.996752 ei 0.001 es 0.000 et 0.001 er 0.001] ------- [25:255 -1:255 29 0] [0x2 2 1 [0 0] [13 4]] (REQUEST)
D 0.007996940 _42_ MAC  COL 0 AODV 106 [0 ffffffff 9 800] [energy 89.997600 ei 0.001 es 0.000 et 0.000 er 0.001] ------- [9:255 -1:255 28 0] [0x2 3 1 [0 0] [13 4]] (REQUEST)
D 0.007996945 _47_ MAC  COL 0 AODV 106 [0 ffffffff 9 800] [energy 89.997600 ei 0.001 es 0.000 et 0.000 er 0.001] ------- [9:255 -1:255 28 0] [0x2 3 1 [0 0] [13 4]] (REQUEST)
D 0.007996979 _7_ MAC  COL 0 AODV 106 [0 ffffffff 9 800] [energy 89.997600 ei 0.001 es 0.000 et 0.000 er 0.001] ------- [9:255 -1:255 28 0] [0x2 3 1 [0 0] [13 4]] (REQUEST)
D 0.007996992 _38_ MAC  COL 0 AODV 106 [0 ffffffff 9 800] [energy 89.997600 ei 0.001 es 0.000 et 0.000 er 0.001] ------- [9:255 -1:255 28 0] [0x2 3 1 [0 0] [13 4]] (REQUEST)
D 0.007997000 _0_ MAC  COL 0 AODV 106 [0 ffffffff 19 800] [energy 89.997600 ei 0.001 es 0.000 et 0.000 er 0.001] ------- [25:255 -1:255 29 0] [0x2 2 1 [0 0] [13 4]] (REQUEST)
D 0.007997012 _5_ MAC  COL 0 AODV 106 [0 ffffffff 9 800] [energy 89.997600 ei 0.001 es 0.000 et 0.000 er 0.001] ------- [9:255 -1:255 28 0] [0x2 3 1 [0 0] [13 4]] (REQUEST)
D 0.007997019 _13_ MAC  COL 0 AODV 106 [0 ffffffff 19 800] [energy 89.995904 ei 0.001 es 0.000 et 0.002 er 0.001] ------- [25:255 -1:255 29 0] [0x2 2 1 [0 0] [13 4]] (REQUEST)
D 0.007997021 _29_ MAC  COL 0 AODV 106 [0 ffffffff 19 800] [energy 89.997600 ei 0.001 es 0.000 et 0.000 er 0.001] ------- [25:255 -1:255 29 0] [0x2 2 1 [0 0] [13 4]] (REQUEST)
D 0.007997053 _16_ MAC  COL 0 AODV 106 [0 ffffffff 19 800] [energy 89.997600 ei 0.001 es 0.000 et 0.000 er 0.001] ------- [25:255 -1:255 29 0] [0x2 2 1 [0 0] [13 4]] (REQUEST)
D 0.007997101 _10_ MAC  COL 0 AODV 106 [0 ffffffff 19 800] [energy 89.996752 ei 0.001 es 0.000 et 0.001 er 0.001] ------- [25:255 -1:255 29 0] [0x2 2 1 [0 0] [13 4]] (REQUEST)
D 0.007997124 _41_ MAC  COL 0 AODV 106 [0 ffffffff 19 800] [energy 89.997600 ei 0.001 es 0.000 et 0.000 er 0.001] ------- [25:255 -1:255 29 0] [0x2 2 1 [0 0] [13 4]] (REQUEST)
D 0.010247828 _32_ MAC  COL 0 AODV 106 [0 ffffffff 21 800] [energy 89.996600 ei 0.002 es 0.000 et 0.000 er 0.002] ------- [33:255 -1:255 29 0] [0x2 2 1 [5 0] [53 4]] (REQUEST)
D 0.010247888 _18_ MAC  COL 0 AODV 106 [0 ffffffff 21 800] [energy 89.996600 ei 0.002 es 0.000 et 0.000 er 0.002] ------- [33:255 -1:255 29 0] [0x2 2 1 [5 0] [53 4]] (REQUEST)
D 0.010247903 _29_ MAC  COL 0 AODV 106 [0 ffffffff 21 800] [energy 89.996600 ei 0.002 es 0.000 et 0.000 er 0.002] ------- [33:255 -1:255 29 0] [0x2 2 1 [5 0] [53 4]] (REQUEST)
D 0.010248045 _46_ MAC  COL 0 AODV 106 [0 ffffffff 21 800] [energy 89.996600 ei 0.002 es 0.000 et 0.000 er 0.002] ------- [33:255 -1:255 29 0] [0x2 2 1 [5 0] [53 4]] (REQUEST)
D 0.010248051 _11_ MAC  COL 0 AODV 106 [0 ffffffff 21 800] [energy 89.996600 ei 0.002 es 0.000 et 0.000 er 0.002] ------- [33:255 -1:255 29 0] [0x2 2 1 [5 0] [53 4]] (REQUEST)
D 0.010248082 _45_ MAC  COL 0 AODV 106 [0 ffffffff 21 800] [energy 89.996600 ei 0.002 es 0.000 et 0.000 er 0.002] ------- [33:255 -1:255 29 0] [0x2 2 1 [5 0] [53 4]] (REQUEST)
D 0.010248105 _52_ MAC  COL 0 AODV 106 [0 ffffffff 21 800] [energy 89.995752 ei 0.002 es 0.000 et 0.001 er 0.001] ------- [33:255 -1:255 29 0] [0x2 2 1 [5 0] [53 4]] (REQUEST)
D 0.010248134 _10_ MAC  COL 0 AODV 106 [0 ffffffff 21 800] [energy 89.995752 ei 0.002 es 0.000 et 0.001 er 0.001] ------- [33:255 -1:255 29 0] [0x2 2 1 [5 0] [53 4]] (REQUEST)
D 0.010248252 _19_ MAC  COL 0 AODV 106 [0 ffffffff 21 800] [energy 89.996600 ei 0.002 es 0.000 et 0.000 er 0.002] ------- [33:255 -1:255 29 0] [0x2 2 1 [5 0] [53 4]] (REQUEST)
D 0.010248316 _9_ MAC  COL 0 AODV 106 [0 ffffffff 21 800] [energy 89.995752 ei 0.002 es 0.000 et 0.001 er 0.001] ------- [33:255 -1:255 29 0] [0x2 2 1 [5 0] [53 4]] (REQUEST)
D 0.010248331 _53_ MAC  COL 0 AODV 106 [0 ffffffff 21 800] [energy 89.995751 ei 0.002 es 0.000 et 0.001 er 0.001] ------- [33:255 -1:255 29 0] [0x2 2 1 [5 0] [53 4]] (REQUEST)
D 0.010248468 _20_ MAC  COL 0 AODV 106 [0 ffffffff 21 800] [energy 89.996600 ei 0.002 es 0.000 et 0.000 er 0.002] ------- [33:255 -1:255 29 0] [0x2 2 1 [5 0] [53 4]] (REQUEST)
D 0.010248469 _25_ MAC  COL 0 AODV 106 [0 ffffffff 21 800] [energy 89.995752 ei 0.002 es 0.000 et 0.001 er 0.001] ------- [33:255 -1:255 29 0] [0x2 2 1 [5 0] [53 4]] (REQUEST)
D 0.010248471 _30_ MAC  COL 0 AODV 106 [0 ffffffff 21 800] [energy 89.996600 ei 0.002 es 0.000 et 0.000 er 0.002] ------- [33:255 -1:255 29 0] [0x2 2 1 [5 0] [53 4]] (REQUEST)
D 0.010248538 _8_ MAC  COL 0 AODV 106 [0 ffffffff 21 800] [energy 89.996600 ei 0.002 es 0.000 et 0.000 er 0.002] ------- [33:255 -1:255 29 0] [0x2 2 1 [5 0] [53 4]] (REQUEST)
D 0.010248539 _15_ MAC  COL 0 AODV 106 [0 ffffffff 21 800] [energy 89.996600 ei 0.002 es 0.000 et 0.000 er 0.002] ------- [33:255 -1:255 29 0] [0x2 2 1 [5 0] [53 4]] (REQUEST)
D 0.010248588 _37_ MAC  COL 0 AODV 106 [0 ffffffff 21 800] [energy 89.996599 ei 0.002 es 0.000 et 0.000 er 0.002] ------- [33:255 -1:255 29 0] [0x2 2 1 [5 0] [53 4]] (REQUEST)
D 0.010248640 _44_ MAC  COL 0 AODV 106 [0 ffffffff 21 800] [energy 89.996600 ei 0.002 es 0.000 et 0.000 er 0.002] ------- [33:255 -1:255 29 0] [0x2 2 1 [5 0] [53 4]] (REQUEST)
D 0.010248667 _31_ MAC  COL 0 AODV 106 [0 ffffffff 21 800] [energy 89.996599 ei 0.002 es 0.000 et 0.000 er 0.002] ------- [33:255 -1:255 29 0] [0x2 2 1 [5 0] [53 4]] (REQUEST)
D 0.010248671 _1_ MAC  COL 0 AODV 106 [0 ffffffff 21 800] [energy 89.996600 ei 0.002 es 0.000 et 0.000 er 0.002] ------- [33:255 -1:255 29 0] [0x2 2 1 [5 0] [53 4]] (REQUEST)
D 0.010248683 _3_ MAC  COL 0 AODV 106 [0 ffffffff 21 800] [energy 89.996600 ei 0.002 es 0.000 et 0.000 er 0.002] ------- [33:255 -1:255 29 0] [0x2 2 1 [5 0] [53 4]] (REQUEST)
D 0.010248729 _28_ MAC  COL 0 AODV 106 [0 ffffffff 21 800] [energy 89.996599 ei 0.002 es 0.000 et 0.000 er 0.002] ------- [33:255 -1:255 29 0] [0x2 2 1 [5 0] [53 4]] (REQUEST)
D 0.010248733 _38_ MAC  COL 0 AODV 106 [0 ffffffff 21 800] [energy 89.996600 ei 0.002 es 0.000 et 0.000 er 0.002] ------- [33:255 -1:255 29 0] [0x2 2 1 [5 0] [53 4]] (REQUEST)
D 0.010248756 _35_ MAC  COL 0 AODV 106 [0 ffffffff 21 800] [energy 89.996599 ei 0.002 es 0.000 et 0.000 er 0.002] ------- [33:255 -1:255 29 0] [0x2 2 1 [5 0] [53 4]] (REQUEST)
D 0.010248775 _34_ MAC  COL 0 AODV 106 [0 ffffffff 21 800] [energy 89.996600 ei 0.002 es 0.000 et 0.000 er 0.002] ------- [33:255 -1:255 29 0] [0x2 2 1 [5 0] [53 4]] (REQUEST)
D 0.010248783 _12_ MAC  COL 0 AODV 106 [0 ffffffff 21 800] [energy 89.996600 ei 0.002 es 0.000 et 0.000 er 0.002] ------- [33:255 -1:255 29 0] [0x2 2 1 [5 0] [53 4]] (REQUEST)
D 0.010248866 _7_ MAC  COL 0 AODV 106 [0 ffffffff 21 800] [energy 89.996600 ei 0.002 es 0.000 et 0.000 er 0.002] ------- [33:255 -1:255 29 0] [0x2 2 1 [5 0] [53 4]] (REQUEST)
D 0.010248957 _4_ MAC  COL 0 AODV 106 [0 ffffffff 21 800] [energy 89.996600 ei 0.002 es 0.000 et 0.000 er 0.002] ------- [33:255 -1:255 29 0] [0x2 2 1 [5 0] [53 4]] (REQUEST)
D 0.011095828 _32_ MAC  COL 0 AODV 106 [0 ffffffff 10 800] [energy 89.996600 ei 0.002 es 0.000 et 0.000 er 0.002] ------- [16:255 -1:255 29 0] [0x2 2 1 [0 0] [13 4]] (REQUEST)
D 0.011095888 _18_ MAC  COL 0 AODV 106 [0 ffffffff 10 800] [energy 89.996600 ei 0.002 es 0.000 et 0.000 er 0.002] ------- [16:255 -1:255 29 0] [0x2 2 1 [0 0] [13 4]] (REQUEST)
D 0.011095903 _29_ MAC  COL 0 AODV 106 [0 ffffffff 10 800] [energy 89.996600 ei 0.002 es 0.000 et 0.000 er 0.002] ------- [16:255 -1:255 29 0] [0x2 2 1 [0 0] [13 4]] (REQUEST)