D 0.003369477 _51_ MAC  COL 0 AODV 106 [0 ffffffff 18 800] [energy 89.998581 ei 0.001 es 0.000 et 0.000 er 0.001] ------- [24:255 -1:255 29 0] [0x2 2 1 [0 0] [13 4]] (REQUEST)
D 0.003369487 _42_ MAC  COL 0 AODV 106 [0 ffffffff 34 800] [energy 89.998581 ei 0.001 es 0.000 et 0.000 er 0.001] ------- [52:255 -1:255 29 0] [0x2 2 4 [3 0] [13 10]] (REQUEST)
D 0.003369567 _13_ MAC  COL 0 AODV 106 [0 ffffffff 34 800] [energy 89.996037 ei 0.001 es 0.000 et 0.003 er 0.000] ------- [52:255 -1:255 29 0] [0x2 2 4 [3 0] [13 10]] (REQUEST)
D 0.003369571 _47_ MAC  COL 0 AODV 106 [0 ffffffff 18 800] [energy 89.998581 ei 0.001 es 0.000 et 0.000 er 0.001] ------- [24:255 -1:255 29 0] [0x2 2 1 [0 0] [13 4]] (REQUEST)
D 0.003369612 _39_ MAC  COL 0 AODV 106 [0 ffffffff 18 800] [energy 89.998581 ei 0.001 es 0.000 et 0.000 er 0.001] ------- [24:255 -1:255 29 0] [0x2 2 1 [0 0] [13 4]] (REQUEST)
D 0.003369631 _2_ MAC  COL 0 AODV 106 [0 ffffffff 34 800] [energy 89.998581 ei 0.001 es 0.000 et 0.000 er 0.001] ------- [52:255 -1:255 29 0] [0x2 2 4 [3 0] [13 10]] (REQUEST)
D 0.003369649 _10_ MAC  COL 0 AODV 106 [0 ffffffff 34 800] [energy 89.998581 ei 0.001 es 0.000 et 0.000 er 0.001] ------- [52:255 -1:255 29 0] [0x2 2 4 [3 0] [13 10]] (REQUEST)
D 0.003369670 _4_ MAC  COL 0 AODV 106 [0 ffffffff 34 800] [energy 89.998581 ei 0.001 es 0.000 et 0.000 er 0.001] ------- [52:255 -1:255 29 0] [0x2 2 4 [3 0] [13 10]] (REQUEST)
D 0.003369686 _36_ MAC  COL 0 AODV 106 [0 ffffffff 18 800] [energy 89.998581 ei 0.001 es 0.000 et 0.000 er 0.001] ------- [24:255 -1:255 29 0] [0x2 2 1 [0 0] [13 4]] (REQUEST)
D 0.003369692 _6_ MAC  COL 0 AODV 106 [0 ffffffff 18 800] [energy 89.998581 ei 0.001 es 0.000 et 0.000 er 0.001] ------- [24:255 -1:255 29 0] [0x2 2 1 [0 0] [13 4]] (REQUEST)
D 0.003369843 _31_ MAC  COL 0 AODV 106 [0 ffffffff 18 800] [energy 89.998581 ei 0.001 es 0.000 et 0.000 er 0.001] ------- [24:255 -1:255 29 0] [0x2 2 1 [0 0] [13 4]] (REQUEST)
D 0.003369848 _35_ MAC  COL 0 AODV 106 [0 ffffffff 18 800] [energy 89.998581 ei 0.001 es 0.000 et 0.000 er 0.001] ------- [24:255 -1:255 29 0] [0x2 2 1 [0 0] [13 4]] (REQUEST)
D 0.003369860 _16_ MAC  COL 0 AODV 106 [0 ffffffff 18 800] [energy 89.998581 ei 0.001 es 0.000 et 0.000 er 0.001] ------- [24:255 -1:255 29 0] [0x2 2 1 [0 0] [13 4]] (REQUEST)
D 0.003369868 _44_ MAC  COL 0 AODV 106 [0 ffffffff 34 800] [energy 89.998581 ei 0.001 es 0.000 et 0.000 er 0.001] ------- [52:255 -1:255 29 0] [0x2 2 4 [3 0] [13 10]] (REQUEST)
D 0.003369870 _48_ MAC  COL 0 AODV 106 [0 ffffffff 34 800] [energy 89.998581 ei 0.001 es 0.000 et 0.000 er 0.001] ------- [52:255 -1:255 29 0] [0x2 2 4 [3 0] [13 10]] (REQUEST)
D 0.003369922 _7_ MAC  COL 0 AODV 106 [0 ffffffff 34 800] [energy 89.998581 ei 0.001 es 0.000 et 0.000 er 0.001] ------- [52:255 -1:255 29 0] [0x2 2 4 [3 0] [13 10]] (REQUEST)
D 0.003369945 _46_ MAC  COL 0 AODV 106 [0 ffffffff 34 800] [energy 89.998580 ei 0.001 es 0.000 et 0.000 er 0.001] ------- [52:255 -1:255 29 0] [0x2 2 4 [3 0] [13 10]] (REQUEST)
D 0.003369978 _20_ MAC  COL 0 AODV 106 [0 ffffffff 18 800] [energy 89.998580 ei 0.001 es 0.000 et 0.000 er 0.001] ------- [24:255 -1:255 29 0] [0x2 2 1 [0 0] [13 4]] (REQUEST)
D 0.003370044 _49_ MAC  COL 0 AODV 106 [0 ffffffff 34 800] [energy 89.998580 ei 0.001 es 0.000 et 0.000 er 0.001] ------- [52:255 -1:255 29 0] [0x2 2 4 [3 0] [13 10]] (REQUEST)
D 0.003370055 _25_ MAC  COL 0 AODV 106 [0 ffffffff 34 800] [energy 89.998580 ei 0.001 es 0.000 et 0.000 er 0.001] ------- [52:255 -1:255 29 0] [0x2 2 4 [3 0] [13 10]] (REQUEST)
D 0.003370072 _17_ MAC  COL 0 AODV 106 [0 ffffffff 18 800] [energy 89.998580 ei 0.001 es 0.000 et 0.000 er 0.001] ------- [24:255 -1:255 29 0] [0x2 2 1 [0 0] [13 4]] (REQUEST)
D 0.003370077 _29_ MAC  COL 0 AODV 106 [0 ffffffff 34 800] [energy 89.998580 ei 0.001 es 0.000 et 0.000 er 0.001] ------- [52:255 -1:255 29 0] [0x2 2 4 [3 0] [13 10]] (REQUEST)
D 0.003370086 _8_ MAC  COL 0 AODV 106 [0 ffffffff 18 800] [energy 89.998580 ei 0.001 es 0.000 et 0.000 er 0.001] ------- [24:255 -1:255 29 0] [0x2 2 1 [0 0] [13 4]] (REQUEST)
D 0.003370103 _14_ MAC  COL 0 AODV 106 [0 ffffffff 34 800] [energy 89.998580 ei 0.001 es 0.000 et 0.000 er 0.001] ------- [52:255 -1:255 29 0] [0x2 2 4 [3 0] [13 10]] (REQUEST)
D 0.003370118 _12_ MAC  COL 0 AODV 106 [0 ffffffff 18 800] [energy 89.998580 ei 0.001 es 0.000 et 0.000 er 0.001] ------- [24:255 -1:255 29 0] [0x2 2 1 [0 0] [13 4]] (REQUEST)
D 0.003370122 _11_ MAC  COL 0 AODV 106 [0 ffffffff 34 800] [energy 89.998580 ei 0.001 es 0.000 et 0.000 er 0.001] ------- [52:255 -1:255 29 0] [0x2 2 4 [3 0] [13 10]] (REQUEST)
D 0.003370136 _1_ MAC  COL 0 AODV 106 [0 ffffffff 34 800] [energy 89.998580 ei 0.001 es 0.000 et 0.000 er 0.001] ------- [52:255 -1:255 29 0] [0x2 2 4 [3 0] [13 10]] (REQUEST)
D 0.003370146 _3_ MAC  COL 0 AODV 106 [0 ffffffff 34 800] [energy 89.998580 ei 0.001 es 0.000 et 0.000 er 0.001] ------- [52:255 -1:255 29 0] [0x2 2 4 [3 0] [13 10]] (REQUEST)
D 0.003370162 _0_ MAC  COL 0 AODV 106 [0 ffffffff 18 800] [energy 89.998580 ei 0.001 es 0.000 et 0.000 er 0.001] ------- [24:255 -1:255 29 0] [0x2 2 1 [0 0] [13 4]] (REQUEST)
D 0.004217477 _51_ MAC  COL 0 AODV 106 [0 ffffffff 34 800] [energy 89.998581 ei 0.001 es 0.000 et 0.000 er 0.001] ------- [52:255 -1:255 29 0] [0x2 2 4 [3 0] [13 10]] (REQUEST)
D 0.004217487 _42_ MAC  COL 0 AODV 106 [0 ffffffff 18 800] [energy 89.998581 ei 0.001 es 0.000 et 0.000 er 0.001] ------- [24:255 -1:255 29 0] [0x2 2 1 [0 0] [13 4]] (REQUEST)
D 0.004217567 _13_ MAC  COL 0 AODV 106 [0 ffffffff 18 800] [energy 89.996037 ei 0.001 es 0.000 et 0.003 er 0.000] ------- [24:255 -1:255 29 0] [0x2 2 1 [0 0] [13 4]] (REQUEST)
D 0.004217571 _47_ MAC  COL 0 AODV 106 [0 ffffffff 34 800] [energy 89.998581 ei 0.001 es 0.000 et 0.000 er 0.001] ------- [52:255 -1:255 29 0] [0x2 2 4 [3 0] [13 10]] (REQUEST)
D 0.004217612 _39_ MAC  COL 0 AODV 106 [0 ffffffff 34 800] [energy 89.998581 ei 0.001 es 0.000 et 0.000 er 0.001] ------- [52:255 -1:255 29 0] [0x2 2 4 [3 0] [13 10]] (REQUEST)
D 0.004217631 _2_ MAC  COL 0 AODV 106 [0 ffffffff 18 800] [energy 89.998581 ei 0.001 es 0.000 et 0.000 er 0.001] ------- [24:255 -1:255 29 0] [0x2 2 1 [0 0] [13 4]] (REQUEST)
D 0.004217649 _10_ MAC  COL 0 AODV 106 [0 ffffffff 18 800] [energy 89.998581 ei 0.001 es 0.000 et 0.000 er 0.001] ------- [24:255 -1:255 29 0] [0x2 2 1 [0 0] [13 4]] (REQUEST)
D 0.004217670 _4_ MAC  COL 0 AODV 106 [0 ffffffff 18 800] [energy 89.998581 ei 0.001 es 0.000 et 0.000 er 0.001] ------- [24:255 -1:255 29 0] [0x2 2 1 [0 0] [13 4]] (REQUEST)
D 0.004217686 _36_ MAC  COL 0 AODV 106 [0 ffffffff 34 800] [energy 89.998581 ei 0.001 es 0.000 et 0.000 er 0.001] ------- [52:255 -1:255 29 0] [0x2 2 4 [3 0] [13 10]] (REQUEST)
D 0.004217692 _6_ MAC  COL 0 AODV 106 [0 ffffffff 34 800] [energy 89.998581 ei 0.001 es 0.000 et 0.000 er 0.001] ------- [52:255 -1:255 29 0] [0x2 2 4 [3 0] [13 10]] (REQUEST)
D 0.004217843 _31_ MAC  COL 0 AODV 106 [0 ffffffff 34 800] [energy 89.998581 ei 0.001 es 0.000 et 0.000 er 0.001] ------- [52:255 -1:255 29 0] [0x2 2 4 [3 0] [13 10]] (REQUEST)
D 0.004217848 _35_ MAC  COL 0 AODV 106 [0 ffffffff 34 800] [energy 89.998581 ei 0.001 es 0.000 et 0.000 er 0.001] ------- [52:255 -1:255 29 0] [0x2 2 4 [3 0] [13 10]] (REQUEST)
D 0.004217860 _16_ MAC  COL 0 AODV 106 [0 ffffffff 34 800] [energy 89.998581 ei 0.001 es 0.000 et 0.000 er 0.001] ------- [52:255 -1:255 29 0] [0x2 2 4 [3 0] [13 10]] (REQUEST)
D 0.004217868 _44_ MAC  COL 0 AODV 106 [0 ffffffff 18 800] [energy 89.998581 ei 0.001 es 0.000 et 0.000 er 0.001] ------- [24:255 -1:255 29 0] [0x2 2 1 [0 0] [13 4]] (REQUEST)
D 0.004217870 _48_ MAC  COL 0 AODV 106 [0 ffffffff 18 800] [energy 89.998581 ei 0.001 es 0.000 et 0.000 er 0.001] ------- [24:255 -1:255 29 0] [0x2 2 1 [0 0] [13 4]] (REQUEST)
D 0.004217922 _7_ MAC  COL 0 AODV 106 [0 ffffffff 18 800] [energy 89.998581 ei 0.001 es 0.000 et 0.000 er 0.001] ------- [24:255 -1:255 29 0] [0x2 2 1 [0 0] [13 4]] (REQUEST)
D 0.004217945 _46_ MAC  COL 0 AODV 106 [0 ffffffff 18 800] [energy 89.998580 ei 0.001 es 0.000 et 0.000 er 0.001] ------- [24:255 -1:255 29 0] [0x2 2 1 [0 0] [13 4]] (REQUEST)
D 0.004217978 _20_ MAC  COL 0 AODV 106 [0 ffffffff 34 800] [energy 89.998580 ei 0.001 es 0.000 et 0.000 er 0.001] ------- [52:255 -1:255 29 0] [0x2 2 4 [3 0] [13 10]] (REQUEST)
D 0.004218044 _49_ MAC  COL 0 AODV 106 [0 ffffffff 18 800] [energy 89.998580 ei 0.001 es 0.000 et 0.000 er 0.001] ------- [24:255 -1:255 29 0] [0x2 2 1 [0 0] [13 4]] (REQUEST)
D 0.004218055 _25_ MAC  COL 0 AODV 106 [0 ffffffff 18 800] [energy 89.998580 ei 0.001 es 0.000 et 0.000 er 0.001] ------- [24:255 -1:255 29 0] [0x2 2 1 [0 0] [13 4]] (REQUEST)
D 0.004218072 _17_ MAC  COL 0 AODV 106 [0 ffffffff 34 800] [energy 89.998580 ei 0.001 es 0.000 et 0.000 er 0.001] ------- [52:255 -1:255 29 0] [0x2 2 4 [3 0] [13 10]] (REQUEST)
D 0.004218077 _29_ MAC  COL 0 AODV 106 [0 ffffffff 18 800] [energy 89.998580 ei 0.001 es 0.000 et 0.000 er 0.001] ------- [24:255 -1:255 29 0] [0x2 2 1 [0 0] [13 4]] (REQUEST)
D 0.004218103 _14_ MAC  COL 0 AODV 106 [0 ffffffff 18 800] [energy 89.998580 ei 0.001 es 0.000 et 0.000 er 0.001] ------- [24:255 -1:255 29 0] [0x2 2 1 [0 0] [13 4]] (REQUEST)
D 0.005550198 _35_ MAC  COL 0 AODV 106 [0 ffffffff 1f 800] [energy 89.997800 ei 0.001 es 0.000 et 0.000 er 0.001] ------- [31:255 -1:255 29 0] [0x2 2 4 [3 0] [13 10]] (REQUEST)
D 0.005550242 _51_ MAC  COL 0 AODV 106 [0 ffffffff 1f 800] [energy 89.997799 ei 0.001 es 0.000 et 0.000 er 0.001] ------- [31:255 -1:255 29 0] [0x2 2 4 [3 0] [13 10]] (REQUEST)
D 0.005550259 _16_ MAC  COL 0 AODV 106 [0 ffffffff 1f 800] [energy 89.997799 ei 0.001 es 0.000 et 0.000 er 0.001] ------- [31:255 -1:255 29 0] [0x2 2 4 [3 0] [13 10]] (REQUEST)
D 0.005550270 _6_ MAC  COL 0 AODV 106 [0 ffffffff 1f 800] [energy 89.997799 ei 0.001 es 0.000 et 0.000 er 0.001] ------- [31:255 -1:255 29 0] [0x2 2 4 [3 0] [13 10]] (REQUEST)
D 0.005550272 _39_ MAC  COL 0 AODV 106 [0 ffffffff 1f 800] [energy 89.997799 ei 0.001 es 0.000 et 0.000 er 0.001] ------- [31:255 -1:255 29 0] [0x2 2 4 [3 0] [13 10]] (REQUEST)
D 0.005550325 _20_ MAC  COL 0 AODV 106 [0 ffffffff 1f 800] [energy 89.997800 ei 0.001 es 0.000 et 0.000 er 0.001] ------- [31:255 -1:255 29 0] [0x2 2 4 [3 0] [13 10]] (REQUEST)
D 0.005550362 _47_ MAC  COL 0 AODV 106 [0 ffffffff 1f 800] [energy 89.997799 ei 0.001 es 0.000 et 0.000 er 0.001] ------- [31:255 -1:255 29 0] [0x2 2 4 [3 0] [13 10]] (REQUEST)
D 0.005550370 _24_ MAC  COL 0 AODV 106 [0 ffffffff 24 800] [energy 89.996951 ei 0.001 es 0.000 et 0.001 er 0.001] ------- [36:255 -1:255 29 0] [0x2 2 1 [0 0] [13 4]] (REQUEST)
D 0.005550387 _8_ MAC  COL 0 AODV 106 [0 ffffffff 1f 800] [energy 89.997800 ei 0.001 es 0.000 et 0.000 er 0.001] ------- [31:255 -1:255 29 0] [0x2 2 4 [3 0] [13 10]] (REQUEST)
D 0.005550437 _17_ MAC  COL 0 AODV 106 [0 ffffffff 1f 800] [energy 89.997800 ei 0.001 es 0.000 et 0.000 er 0.001] ------- [31:255 -1:255 29 0] [0x2 2 4 [3 0] [13 10]] (REQUEST)
D 0.005550479 _12_ MAC  COL 0 AODV 106 [0 ffffffff 1f 800] [energy 89.997799 ei 0.001 es 0.000 et 0.000 er 0.001] ------- [31:255 -1:255 29 0] [0x2 2 4 [3 0] [13 10]] (REQUEST)
D 0.005550494 _0_ MAC  COL 0 AODV 106 [0 ffffffff 1f 800] [energy 89.997799 ei 0.001 es 0.000 et 0.000 er 0.001] ------- [31:255 -1:255 29 0] [0x2 2 4 [3 0] [13 10]] (REQUEST)
D 0.005550495 _52_ MAC  COL 0 AODV 106 [0 ffffffff 24 800] [energy 89.996951 ei 0.001 es 0.000 et 0.001 er 0.001] ------- [36:255 -1:255 29 0] [0x2 2 1 [0 0] [13 4]] (REQUEST)
D 0.005550496 _22_ MAC  COL 0 AODV 106 [0 ffffffff 1f 800] [energy 89.997799 ei 0.001 es 0.000 et 0.000 er 0.001] ------- [31:255 -1:255 29 0] [0x2 2 4 [3 0] [13 10]] (REQUEST)
D 0.005550513 _42_ MAC  COL 0 AODV 106 [0 ffffffff 24 800] [energy 89.997799 ei 0.001 es 0.000 et 0.000 er 0.001] ------- [36:255 -1:255 29 0] [0x2 2 1 [0 0] [13 4]] (REQUEST)
D 0.005550538 _18_ MAC  COL 0 AODV 106 [0 ffffffff 1f 800] [energy 89.997799 ei 0.001 es 0.000 et 0.000 er 0.001] ------- [31:255 -1:255 29 0] [0x2 2 4 [3 0] [13 10]] (REQUEST)
D 0.005550543 _48_ MAC  COL 0 AODV 106 [0 ffffffff 1f 800] [energy 89.997799 ei 0.001 es 0.000 et 0.000 er 0.001] ------- [31:255 -1:255 29 0] [0x2 2 4 [3 0] [13 10]] (REQUEST)
D 0.005550551 _46_ MAC  COL 0 AODV 106 [0 ffffffff 1f 800] [energy 89.997799 ei 0.001 es 0.000 et 0.000 er 0.001] ------- [31:255 -1:255 29 0] [0x2 2 4 [3 0] [13 10]] (REQUEST)
D 0.005550560 _4_ MAC  COL 0 AODV 106 [0 ffffffff 24 800] [energy 89.997799 ei 0.001 es 0.000 et 0.000 er 0.001] ------- [36:255 -1:255 29 0] [0x2 2 1 [0 0] [13 4]] (REQUEST)
D 0.005550566 _27_ MAC  COL 0 AODV 106 [0 ffffffff 1f 800] [energy 89.997799 ei 0.001 es 0.000 et 0.000 er 0.001] ------- [31:255 -1:255 29 0] [0x2 2 4 [3 0] [13 10]] (REQUEST)
D 0.005550575 _41_ MAC  COL 0 AODV 106 [0 ffffffff 1f 800] [energy 89.997799 ei 0.001 es 0.000 et 0.000 er 0.001] ------- [31:255 -1:255 29 0] [0x2 2 4 [3 0] [13 10]] (REQUEST)
D 0.005550582 _14_ MAC  COL 0 AODV 106 [0 ffffffff 1f 800] [energy 89.997799 ei 0.001 es 0.000 et 0.000 er 0.001] ------- [31:255 -1:255 29 0] [0x2 2 4 [3 0] [13 10]] (REQUEST)
D 0.005550590 _29_ MAC  COL 0 AODV 106 [0 ffffffff 1f 800] [energy 89.997799 ei 0.001 es 0.000 et 0.000 er 0.001] ------- [31:255 -1:255 29 0] [0x2 2 4 [3 0] [13 10]] (REQUEST)
D 0.005550612 _34_ MAC  COL 0 AODV 106 [0 ffffffff 1f 800] [energy 89.997799 ei 0.001 es 0.000 et 0.000 er 0.001] ------- [31:255 -1:255 29 0] [0x2 2 4 [3 0] [13 10]] (REQUEST)
D 0.005550612 _26_ MAC  COL 0 AODV 106 [0 ffffffff 1f 800] [energy 89.997799 ei 0.001 es 0.000 et 0.000 er 0.001] ------- [31:255 -1:255 29 0] [0x2 2 4 [3 0] [13 10]] (REQUEST)
D 0.005550626 _33_ MAC  COL 0 AODV 106 [0 ffffffff 1f 800] [energy 89.997799 ei 0.001 es 0.000 et 0.000 er 0.001] ------- [31:255 -1:255 29 0] [0x2 2 4 [3 0] [13 10]] (REQUEST)
D 0.005550640 _43_ MAC  COL 0 AODV 106 [0 ffffffff 1f 800] [energy 89.997799 ei 0.001 es 0.000 et 0.000 er 0.001] ------- [31:255 -1:255 29 0] [0x2 2 4 [3 0] [13 10]] (REQUEST)
D 0.005550682 _50_ MAC  COL 0 AODV 106 [0 ffffffff 1f 800] [energy 89.997799 ei 0.001 es 0.000 et 0.000 er 0.001] ------- [31:255 -1:255 29 0] [0x2 2 4 [3 0] [13 10]] (REQUEST)
D 0.005550693 _10_ MAC  COL 0 AODV 106 [0 ffffffff 24 800] [energy 89.997799 ei 0.001 es 0.000 et 0.000 er 0.001] ------- [36:255 -1:255 29 0] [0x2 2 1 [0 0] [13 4]] (REQUEST)
D 0.005550701 _2_ MAC  COL 0 AODV 106 [0 ffffffff 24 800] [energy 89.997799 ei 0.001 es 0.000 et 0.000 er 0.001] ------- [36:255 -1:255 29 0] [0x2 2 1 [0 0] [13 4]] (REQUEST)
D 0.005550703 _53_ MAC  COL 0 AODV 106 [0 ffffffff 1f 800] [energy 89.997799 ei 0.001 es 0.000 et 0.000 er 0.001] ------- [31:255 -1:255 29 0] [0x2 2 4 [3 0] [13 10]] (REQUEST)
D 0.005550716 _13_ MAC  COL 0 AODV 106 [0 ffffffff 24 800] [energy 89.995255 ei 0.001 es 0.000 et 0.003 er 0.000] ------- [36:255 -1:255 29 0] [0x2 2 1 [0 0] [13 4]] (REQUEST)
D 0.005550735 _11_ MAC  COL 0 AODV 106 [0 ffffffff 1f 800] [energy 89.997799 ei 0.001 es 0.000 et 0.000 er 0.001] ------- [31:255 -1:255 29 0] [0x2 2 4 [3 0] [13 10]] (REQUEST)
D 0.005550746 _32_ MAC  COL 0 AODV 106 [0 ffffffff 1f 800] [energy 89.997799 ei 0.001 es 0.000 et 0.000 er 0.001] ------- [31:255 -1:255 29 0] [0x2 2 4 [3 0] [13 10]] (REQUEST)
D 0.005550764 _44_ MAC  COL 0 AODV 106 [0 ffffffff 24 800] [energy 89.997799 ei 0.001 es 0.000 et 0.000 er 0.001] ------- [36:255 -1:255 29 0] [0x2 2 1 [0 0] [13 4]] (REQUEST)
D 0.005550768 _7_ MAC  COL 0 AODV 106 [0 ffffffff 24 800] [energy 89.997799 ei 0.001 es 0.000 et 0.000 er 0.001] ------- [36:255 -1:255 29 0] [0x2 2 1 [0 0] [13 4]] (REQUEST)
D 0.005550787 _15_ MAC  COL 0 AODV 106 [0 ffffffff 1f 800] [energy 89.997799 ei 0.001 es 0.000 et 0.000 er 0.001] ------- [31:255 -1:255 29 0] [0x2 2 4 [3 0] [13 10]] (REQUEST)
D 0.005550817 _30_ MAC  COL 0 AODV 106 [0 ffffffff 1f 800] [energy 89.997799 ei 0.001 es 0.000 et 0.000 er 0.001] ------- [31:255 -1:255 29 0] [0x2 2 4 [3 0] [13 10]] (REQUEST)
D 0.005550869 _23_ MAC  COL 0 AODV 106 [0 ffffffff 1f 800] [energy 89.997799 ei 0.001 es 0.000 et 0.000 er 0.001] ------- [31:255 -1:255 29 0] [0x2 2 4 [3 0] [13 10]] (REQUEST)
D 0.006398198 _35_ MAC  COL 0 AODV 106 [0 ffffffff 24 800] [energy 89.997800 ei 0.001 es 0.000 et 0.000 er 0.001] ------- [36:255 -1:255 29 0] [0x2 2 1 [0 0] [13 4]] (REQUEST)
D 0.006398242 _51_ MAC  COL 0 AODV 106 [0 ffffffff 24 800] [energy 89.997799 ei 0.001 es 0.000 et 0.000 er 0.001] ------- [36:255 -1:255 29 0] [0x2 2 1 [0 0] [13 4]] (REQUEST)
D 0.006398259 _16_ MAC  COL 0 AODV 106 [0 ffffffff 24 800] [energy 89.997799 ei 0.001 es 0.000 et 0.000 er 0.001] ------- [36:255 -1:255 29 0] [0x2 2 1 [0 0] [13 4]] (REQUEST)
D 0.006398270 _6_ MAC  COL 0 AODV 106 [0 ffffffff 24 800] [energy 89.997799 ei 0.001 es 0.000 et 0.000 er 0.001] ------- [36:255 -1:255 29 0] [0x2 2 1 [0 0] [13 4]] (REQUEST)
D 0.006398272 _39_ MAC  COL 0 AODV 106 [0 ffffffff 24 800] [energy 89.997799 ei 0.001 es 0.000 et 0.000 er 0.001] ------- [36:255 -1:255 29 0] [0x2 2 1 [0 0] [13 4]] (REQUEST)
D 0.006398325 _20_ MAC  COL 0 AODV 106 [0 ffffffff 24 800] [energy 89.997800 ei 0.001 es 0.000 et 0.000 er 0.001] ------- [36:255 -1:255 29 0] [0x2 2 1 [0 0] [13 4]] (REQUEST)
D 0.006398362 _47_ MAC  COL 0 AODV 106 [0 ffffffff 24 800] [energy 89.997799 ei 0.001 es 0.000 et 0.000 er 0.001] ------- [36:255 -1:255 29 0] [0x2 2 1 [0 0] [13 4]] (REQUEST)
D 0.006398370 _24_ MAC  COL 0 AODV 106 [0 ffffffff 1f 800] [energy 89.996951 ei 0.001 es 0.000 et 0.001 er 0.001] ------- [31:255 -1:255 29 0] [0x2 2 4 [3 0] [13 10]] (REQUEST)
D 0.006398387 _8_ MAC  COL 0 AODV 106 [0 ffffffff 24 800] [energy 89.997800 ei 0.001 es 0.000 et 0.000 er 0.001] ------- [36:255 -1:255 29 0] [0x2 2 1 [0 0] [13 4]] (REQUEST)
D 0.006398437 _17_ MAC  COL 0 AODV 106 [0 ffffffff 24 800] [energy 89.997800 ei 0.001 es 0.000 et 0.000 er 0.001] ------- [36:255 -1:255 29 0] [0x2 2 1 [0 0] [13 4]] (REQUEST)
D 0.006398479 _12_ MAC  COL 0 AODV 106 [0 ffffffff 24 800] [energy 89.997799 ei 0.001 es 0.000 et 0.000 er 0.001] ------- [36:255 -1:255 29 0] [0x2 2 1 [0 0] [13 4]] (REQUEST)
D 0.006398494 _0_ MAC  COL 0 AODV 106 [0 ffffffff 24 800] [energy 89.997799 ei 0.001 es 0.000 et 0.000 er 0.001] ------- [36:255 -1:255 29 0] [0x2 2 1 [0 0] [13 4]] (REQUEST)
D 0.006398495 _52_ MAC  COL 0 AODV 106 [0 ffffffff 1f 800] [energy 89.996951 ei 0.001 es 0.000 et 0.001 er 0.001] ------- [31:255 -1:255 29 0] [0x2 2 4 [3 0] [13 10]] (REQUEST)
D 0.006398496 _22_ MAC  COL 0 AODV 106 [0 ffffffff 24 800] [energy 89.997799 ei 0.001 es 0.000 et 0.000 er 0.001] ------- [36:255 -1:255 29 0] [0x2 2 1 [0 0] [13 4]] (REQUEST)
D 0.006398513 _42_ MAC  COL 0 AODV 106 [0 ffffffff 1f 800] [energy 89.997799 ei 0.001 es 0.000 et 0.000 er 0.001] ------- [31:255 -1:255 29 0] [0x2 2 4 [3 0] [13 10]] (REQUEST)
D 0.006398538 _18_ MAC  COL 0 AODV 106 [0 ffffffff 24 800] [energy 89.997799 ei 0.001 es 0.000 et 0.000 er 0.001] ------- [36:255 -1:255 29 0] [0x2 2 1 [0 0] [13 4]] (REQUEST)
D 0.006398543 _48_ MAC  COL 0 AODV 106 [0 ffffffff 24 800] [energy 89.997799 ei 0.001 es 0.000 et 0.000 er 0.001] ------- [36:255 -1:255 29 0] [0x2 2 1 [0 0] [13 4]] (REQUEST)
D 0.006398551 _46_ MAC  COL 0 AODV 106 [0 ffffffff 24 800] [energy 89.997799 ei 0.001 es 0.000 et 0.000 er 0.001] ------- [36:255 -1:255 29 0] [0x2 2 1 [0 0] [13 4]] (REQUEST)
D 0.006398560 _4_ MAC  COL 0 AODV 106 [0 ffffffff 1f 800] [energy 89.997799 ei 0.001 es 0.000 et 0.000 er 0.001] ------- [31:255 -1:255 29 0] [0x2 2 4 [3 0] [13 10]] (REQUEST)
D 0.006398566 _27_ MAC  COL 0 AODV 106 [0 ffffffff 24 800] [energy 89.997799 ei 0.001 es 0.000 et 0.000 er 0.001] ------- [36:255 -1:255 29 0] [0x2 2 1 [0 0] [13 4]] (REQUEST)
D 0.006398575 _41_ MAC  COL 0 AODV 106 [0 ffffffff 24 800] [energy 89.997799 ei 0.001 es 0.000 et 0.000 er 0.001] ------- [36:255 -1:255 29 0] [0x2 2 1 [0 0] [13 4]] (REQUEST)
D 0.006398582 _14_ MAC  COL 0 AODV 106 [0 ffffffff 24 800] [energy 89.997799 ei 0.001 es 0.000 et 0.000 er 0.001] ------- [36:255 -1:255 29 0] [0x2 2 1 [0 0] [13 4]] (REQUEST)
D 0.006398590 _29_ MAC  COL 0 AODV 106 [0 ffffffff 24 800] [energy 89.997799 ei 0.001 es 0.000 et 0.000 er 0.001] ------- [36:255 -1:255 29 0] [0x2 2 1 [0 0] [13 4]] (REQUEST)
D 0.006398612 _34_ MAC  COL 0 AODV 106 [0 ffffffff 24 800] [energy 89.997799 ei 0.001 es 0.000 et 0.000 er 0.001] ------- [36:255 -1:255 29 0] [0x2 2 1 [0 0] [13 4]] (REQUEST)
D 0.006398612 _26_ MAC  COL 0 AODV 106 [0 ffffffff 24 800] [energy 89.997799 ei 0.001 es 0.000 et 0.000 er 0.001] ------- [36:255 -1:255 29 0] [0x2 2 1 [0 0] [13 4]] (REQUEST)
D 0.006398626 _33_ MAC  COL 0 AODV 106 [0 ffffffff 24 800] [energy 89.997799 ei 0.001 es 0.000 et 0.000 er 0.001] ------- [36:255 -1:255 29 0] [0x2 2 1 [0 0] [13 4]] (REQUEST)
D 0.006398640 _43_ MAC  COL 0 AODV 106 [0 ffffffff 24 800] [energy 89.997799 ei 0.001 es 0.000 et 0.000 er 0.001] ------- [36:255 -1:255 29 0] [0x2 2 1 [0 0] [13 4]] (REQUEST)
D 0.006398682 _50_ MAC  COL 0 AODV 106 [0 ffffffff 24 800] [energy 89.997799 ei 0.001 es 0.000 et 0.000 er 0.001] ------- [36:255 -1:255 29 0] [0x2 2 1 [0 0] [13 4]] (REQUEST)
D 0.006398703 _53_ MAC  COL 0 AODV 106 [0 ffffffff 24 800] [energy 89.997799 ei 0.001 es 0.000 et 0.000 er 0.001] ------- [36:255 -1:255 29 0] [0x2 2 1 [0 0] [13 4]] (REQUEST)
D 0.006398735 _11_ MAC  COL 0 AODV 106 [0 ffffffff 24 800] [energy 89.997799 ei 0.001 es 0.000 et 0.000 er 0.001] ------- [36:255 -1:255 29 0] [0x2 2 1 [0 0] [13 4]] (REQUEST)
D 0.006398746 _32_ MAC  COL 0 AODV 106 [0 ffffffff 24 800] [energy 89.997799 ei 0.001 es 0.000 et 0.000 er 0.001] ------- [36:255 -1:255 29 0] [0x2 2 1 [0 0] [13 4]] (REQUEST)
D 0.006398787 _15_ MAC  COL 0 AODV 106 [0 ffffffff 24 800] [energy 89.997799 ei 0.001 es 0.000 et 0.000 er 0.001] ------- [36:255 -1:255 29 0] [0x2 2 1 [0 0] [13 4]] (REQUEST)
D 0.006398797 _3_ MAC  COL 0 AODV 106 [0 ffffffff 24 800] [energy 89.997799 ei 0.001 es 0.000 et 0.000 er 0.001] ------- [36:255 -1:255 29 0] [0x2 2 1 [0 0] [13 4]] (REQUEST)
D 0.006398817 _30_ MAC  COL 0 AODV 106 [0 ffffffff 24 800] [energy 89.997799 ei 0.001 es 0.000 et 0.000 er 0.001] ------- [36:255 -1:255 29 0] [0x2 2 1 [0 0] [13 4]] (REQUEST)
D 0.013999722 _44_ MAC  COL 0 AODV 106 [0 ffffffff a 800] [energy 89.995514 ei 0.002 es 0.000 et 0.000 er 0.002] ------- [10:255 -1:255 29 0] [0x2 2 1 [0 0] [13 4]] (REQUEST)
D 0.013999748 _49_ MAC  COL 0 AODV 106 [0 ffffffff a 800] [energy 89.995514 ei 0.002 es 0.000 et 0.000 er 0.002] ------- [10:255 -1:255 29 0] [0x2 2 1 [0 0] [13 4]] (REQUEST)
D 0.013999775 _7_ MAC  COL 0 AODV 106 [0 ffffffff a 800] [energy 89.995514 ei 0.002 es 0.000 et 0.000 er 0.002] ------- [10:255 -1:255 29 0] [0x2 2 1 [0 0] [13 4]] (REQUEST)
D 0.013999791 _4_ MAC  COL 0 AODV 106 [0 ffffffff a 800] [energy 89.995514 ei 0.002 es 0.000 et 0.000 er 0.002] ------- [10:255 -1:255 29 0] [0x2 2 1 [0 0] [13 4]] (REQUEST)
D 0.013999794 _3_ MAC  COL 0 AODV 106 [0 ffffffff a 800] [energy 89.995514 ei 0.002 es 0.000 et 0.000 er 0.002] ------- [10:255 -1:255 29 0] [0x2 2 1 [0 0] [13 4]] (REQUEST)
D 0.013999835 _16_ MAC  COL 0 AODV 106 [0 ffffffff a 800] [energy 89.995514 ei 0.002 es 0.000 et 0.000 er 0.002] ------- [10:255 -1:255 29 0] [0x2 2 1 [0 0] [13 4]] (REQUEST)
D 0.013999880 _52_ MAC  COL 0 AODV 106 [0 ffffffff a 800] [energy 89.994666 ei 0.002 es 0.000 et 0.001 er 0.002] ------- [10:255 -1:255 29 0] [0x2 2 1 [0 0] [13 4]] (REQUEST)
D 0.013999928 _2_ MAC  COL 0 AODV 106 [0 ffffffff a 800] [energy 89.993978 ei 0.002 es 0.000 et 0.002 er 0.002] ------- [10:255 -1:255 29 0] [0x2 2 1 [0 0] [13 4]] (REQUEST)
D 0.013999949 _45_ MAC  COL 0 AODV 106 [0 ffffffff a 800] [energy 89.995514 ei 0.002 es 0.000 et 0.000 er 0.002] ------- [10:255 -1:255 29 0] [0x2 2 1 [0 0] [13 4]] (REQUEST)
D 0.013999950 _42_ MAC  COL 0 AODV 106 [0 ffffffff a 800] [energy 89.995514 ei 0.002 es 0.000 et 0.000 er 0.002] ------- [10:255 -1:255 29 0] [0x2 2 1 [0 0] [13 4]] (REQUEST)
D 0.014000002 _48_ MAC  COL 0 AODV 106 [0 ffffffff a 800] [energy 89.995514 ei 0.002 es 0.000 et 0.000 er 0.002] ------- [10:255 -1:255 29 0] [0x2 2 1 [0 0] [13 4]] (REQUEST)
D 0.014000009 _28_ MAC  COL 0 AODV 106 [0 ffffffff a 800] [energy 89.995514 ei 0.002 es 0.000 et 0.000 er 0.002] ------- [10:255 -1:255 29 0] [0x2 2 1 [0 0] [13 4]] (REQUEST)
D 0.014000021 _11_ MAC  COL 0 AODV 106 [0 ffffffff 1 800] [energy 89.995514 ei 0.002 es 0.000 et 0.000 er 0.002] ------- [1:255 -1:255 28 0] [0x2 3 3 [2 0] [13 8]] (REQUEST)
D 0.014000029 _46_ MAC  COL 0 AODV 106 [0 ffffffff 1 800] [energy 89.995514 ei 0.002 es 0.000 et 0.000 er 0.002] ------- [1:255 -1:255 28 0] [0x2 3 3 [2 0] [13 8]] (REQUEST)
D 0.014000064 _32_ MAC  COL 0 AODV 106 [0 ffffffff 1 800] [energy 89.995514 ei 0.002 es 0.000 et 0.000 er 0.002] ------- [1:255 -1:255 28 0] [0x2 3 3 [2 0] [13 8]] (REQUEST)
D 0.014000089 _39_ MAC  COL 0 AODV 106 [0 ffffffff a 800] [energy 89.993818 ei 0.002 es 0.000 et 0.002 er 0.002] ------- [10:255 -1:255 29 0] [0x2 2 1 [0 0] [13 4]] (REQUEST)
D 0.014000118 _5_ MAC  COL 0 AODV 106 [0 ffffffff 1 800] [energy 89.995514 ei 0.002 es 0.000 et 0.000 er 0.002] ------- [1:255 -1:255 28 0] [0x2 3 3 [2 0] [13 8]] (REQUEST)
D 0.014000128 _13_ MAC  COL 0 AODV 106 [0 ffffffff a 800] [energy 89.992970 ei 0.002 es 0.000 et 0.003 er 0.002] ------- [10:255 -1:255 29 0] [0x2 2 1 [0 0] [13 4]] (REQUEST)
D 0.014000131 _29_ MAC  COL 0 AODV 106 [0 ffffffff 1 800] [energy 89.995514 ei 0.002 es 0.000 et 0.000 er 0.002] ------- [1:255 -1:255 28 0] [0x2 3 3 [2 0] [13 8]] (REQUEST)
D 0.014000169 _6_ MAC  COL 0 AODV 106 [0 ffffffff a 800] [energy 89.995514 ei 0.002 es 0.000 et 0.000 er 0.002] ------- [10:255 -1:255 29 0] [0x2 2 1 [0 0] [13 4]] (REQUEST)
D 0.014000192 _37_ MAC  COL 0 AODV 106 [0 ffffffff 1 800] [energy 89.995514 ei 0.002 es 0.000 et 0.000 er 0.002] ------- [1:255 -1:255 28 0] [0x2 3 3 [2 0] [13 8]] (REQUEST)
D 0.014000211 _53_ MAC  COL 0 AODV 106 [0 ffffffff a 800] [energy 89.995514 ei 0.002 es 0.000 et 0.000 er 0.002] ------- [10:255 -1:255 29 0] [0x2 2 1 [0 0] [13 4]] (REQUEST)
D 0.014000215 _14_ MAC  COL 0 AODV 106 [0 ffffffff a 800] [energy 89.995514 ei 0.002 es 0.000 et 0.000 er 0.002] ------- [10:255 -1:255 29 0] [0x2 2 1 [0 0] [13 4]] (REQUEST)
D 0.014000237 _33_ MAC  COL 0 AODV 106 [0 ffffffff a 800] [energy 89.995514 ei 0.002 es 0.000 et 0.000 er 0.002] ------- [10:255 -1:255 29 0] [0x2 2 1 [0 0] [13 4]] (REQUEST)
D 0.014000245 _36_ MAC  COL 0 AODV 106 [0 ffffffff a 800] [energy 89.994666 ei 0.002 es 0.000 et 0.001 er 0.002] ------- [10:255 -1:255 29 0] [0x2 2 1 [0 0] [13 4]] (REQUEST)
D 0.014000264 _38_ MAC  COL 0 AODV 106 [0 ffffffff a 800] [energy 89.995514 ei 0.002 es 0.000 et 0.000 er 0.002] ------- [10:255 -1:255 29 0] [0x2 2 1 [0 0] [13 4]] (REQUEST)
D 0.014000286 _8_ MAC  COL 0 AODV 106 [0 ffffffff a 800] [energy 89.995514 ei 0.002 es 0.000 et 0.000 er 0.002] ------- [10:255 -1:255 29 0] [0x2 2 1 [0 0] [13 4]] (REQUEST)
D 0.014000318 _9_ MAC  COL 0 AODV 106 [0 ffffffff 1 800] [energy 89.995514 ei 0.002 es 0.000 et 0.000 er 0.002] ------- [1:255 -1:255 28 0] [0x2 3 3 [2 0] [13 8]] (REQUEST)
D 0.014000320 _34_ MAC  COL 0 AODV 106 [0 ffffffff a 800] [energy 89.995514 ei 0.002 es 0.000 et 0.000 er 0.002] ------- [10:255 -1:255 29 0] [0x2 2 1 [0 0] [13 4]] (REQUEST)
D 0.014000351 _20_ MAC  COL 0 AODV 106 [0 ffffffff a 800] [energy 89.995514 ei 0.002 es 0.000 et 0.000 er 0.002] ------- [10:255 -1:255 29 0] [0x2 2 1 [0 0] [13 4]] (REQUEST)
D 0.014000355 _23_ MAC  COL 0 AODV 106 [0 ffffffff a 800] [energy 89.995514 ei 0.002 es 0.000 et 0.000 er 0.002] ------- [10:255 -1:255 29 0] [0x2 2 1 [0 0] [13 4]] (REQUEST)
D 0.014000359 _24_ MAC  COL 0 AODV 106 [0 ffffffff a 800] [energy 89.994666 ei 0.002 es 0.000 et 0.001 er 0.002] ------- [10:255 -1:255 29 0] [0x2 2 1 [0 0] [13 4]] (REQUEST)
D 0.014000363 _18_ MAC  COL 0 AODV 106 [0 ffffffff a 800] [energy 89.995514 ei 0.002 es 0.000 et 0.000 er 0.002] ------- [10:255 -1:255 29 0] [0x2 2 1 [0 0] [13 4]] (REQUEST)
D 0.014000364 _51_ MAC  COL 0 AODV 106 [0 ffffffff a 800] [energy 89.994666 ei 0.002 es 0.000 et 0.001 er 0.002] ------- [10:255 -1:255 29 0] [0x2 2 1 [0 0] [13 4]] (REQUEST)
D 0.014000416 _41_ MAC  COL 0 AODV 106 [0 ffffffff a 800] [energy 89.995514 ei 0.002 es 0.000 et 0.000 er 0.002] ------- [10:255 -1:255 29 0] [0x2 2 1 [0 0] [13 4]] (REQUEST)
D 0.014000417 _43_ MAC  COL 0 AODV 106 [0 ffffffff a 800] [energy 89.995514 ei 0.002 es 0.000 et 0.000 er 0.002] ------- [10:255 -1:255 29 0] [0x2 2 1 [0 0] [13 4]] (REQUEST)
D 0.014000421 _47_ MAC  COL 0 AODV 106 [0 ffffffff a 800] [energy 89.995514 ei 0.002 es 0.000 et 0.000 er 0.002] ------- [10:255 -1:255 29 0] [0x2 2 1 [0 0] [13 4]] (REQUEST)
D 0.014000430 _0_ MAC  COL 0 AODV 106 [0 ffffffff a 800] [energy 89.995514 ei 0.002 es 0.000 et 0.000 er 0.002] ------- [10:255 -1:255 29 0] [0x2 2 1 [0 0] [13 4]] (REQUEST)
D 0.014000435 _31_ MAC  COL 0 AODV 106 [0 ffffffff a 800] [energy 89.993818 ei 0.002 es 0.000 et 0.002 er 0.002] ------- [10:255 -1:255 29 0] [0x2 2 1 [0 0] [13 4]] (REQUEST)
D 0.014000473 _21_ MAC  COL 0 AODV 106 [0 ffffffff 1 800] [energy 89.995514 ei 0.002 es 0.000 et 0.000 er 0.002] ------- [1:255 -1:255 28 0] [0x2 3 3 [2 0] [13 8]] (REQUEST)
D 0.014847722 _44_ MAC  COL 0 AODV 106 [0 ffffffff 1 800] [energy 89.995514 ei 0.002 es 0.000 et 0.000 er 0.002] ------- [1:255 -1:255 28 0] [0x2 3 3 [2 0] [13 8]] (REQUEST)
D 0.014847748 _49_ MAC  COL 0 AODV 106 [0 ffffffff 1 800] [energy 89.995514 ei 0.002 es 0.000 et 0.000 er 0.002] ------- [1:255 -1:255 28 0] [0x2 3 3 [2 0] [13 8]] (REQUEST)
D 0.014847775 _7_ MAC  COL 0 AODV 106 [0 ffffffff 1 800] [energy 89.995514 ei 0.002 es 0.000 et 0.000 er 0.002] ------- [1:255 -1:255 28 0] [0x2 3 3 [2 0] [13 8]] (REQUEST)
D 0.014847791 _4_ MAC  COL 0 AODV 106 [0 ffffffff 1 800] [energy 89.995514 ei 0.002 es 0.000 et 0.000 er 0.002] ------- [1:255 -1:255 28 0] [0x2 3 3 [2 0] [13 8]] (REQUEST)
D 0.014847794 _3_ MAC  COL 0 AODV 106 [0 ffffffff 1 800] [energy 89.995514 ei 0.002 es 0.000 et 0.000 er 0.002] ------- [1:255 -1:255 28 0] [0x2 3 3 [2 0] [13 8]] (REQUEST)