n -t * -s 0  -x 0 -y 0 -Z 0 -z 15+i*10  -v circle -c green
n -t * -s 1  -x 0 -y 0 -Z 0 -z 15+i*10  -v circle -c green
n -t * -s 2  -x 0 -y 0 -Z 0 -z 15+i*10  -v circle -c green
n -t * -s 3  -x 0 -y 0 -Z 0 -z 15+i*10  -v circle -c green
n -t * -s 4  -x 0 -y 0 -Z 0 -z 15+i*10  -v circle -c green
n -t * -s 5  -x 0 -y 0 -Z 0 -z 15+i*10  -v circle -c green
n -t * -s 6  -x 0 -y 0 -Z 0 -z 15+i*10  -v circle -c green
n -t * -s 7  -x 0 -y 0 -Z 0 -z 15+i*10  -v circle -c green
n -t * -s 8  -x 0 -y 0 -Z 0 -z 15+i*10  -v circle -c green
n -t * -s 9  -x 0 -y 0 -Z 0 -z 15+i*10  -v circle -c green
n -t * -s 10  -x 0 -y 0 -Z 0 -z 15+i*10  -v circle -c green
n -t * -s 11  -x 0 -y 0 -Z 0 -z 15+i*10  -v circle -c green
n -t * -s 12  -x 0 -y 0 -Z 0 -z 15+i*10  -v circle -c green
n -t * -s 13  -x 0 -y 0 -Z 0 -z 15+i*10  -v circle -c green
n -t * -s 14  -x 0 -y 0 -Z 0 -z 15+i*10  -v circle -c green
n -t * -s 15  -x 0 -y 0 -Z 0 -z 15+i*10  -v circle -c green
n -t * -s 16  -x 0 -y 0 -Z 0 -z 15+i*10  -v circle -c green
n -t * -s 17  -x 0 -y 0 -Z 0 -z 15+i*10  -v circle -c green
n -t * -s 18  -x 0 -y 0 -Z 0 -z 15+i*10  -v circle -c green
n -t * -s 19  -x 0 -y 0 -Z 0 -z 15+i*10  -v circle -c green
n -t * -s 20  -x 0 -y 0 -Z 0 -z 15+i*10  -v circle -c green
n -t * -s 21  -x 0 -y 0 -Z 0 -z 15+i*10  -v circle -c green
n -t * -s 22  -x 0 -y 0 -Z 0 -z 15+i*10  -v circle -c green
n -t * -s 23  -x 0 -y 0 -Z 0 -z 15+i*10  -v circle -c green
n -t * -s 24  -x 0 -y 0 -Z 0 -z 15+i*10  -v circle -c green
n -t * -s 25  -x 0 -y 0 -Z 0 -z 15+i*10  -v circle -c green
n -t * -s 26  -x 0 -y 0 -Z 0 -z 15+i*10  -v circle -c green
n -t * -s 27  -x 0 -y 0 -Z 0 -z 15+i*10  -v circle -c green
n -t * -s 28  -x 0 -y 0 -Z 0 -z 15+i*10  -v circle -c green
n -t * -s 29  -x 0 -y 0 -Z 0 -z 15+i*10  -v circle -c green
n -t * -s 30  -x 0 -y 0 -Z 0 -z 15+i*10  -v circle -c green
n -t * -s 31  -x 0 -y 0 -Z 0 -z 15+i*10  -v circle -c green
n -t * -s 32  -x 0 -y 0 -Z 0 -z 15+i*10  -v circle -c green
n -t * -s 33  -x 0 -y 0 -Z 0 -z 15+i*10  -v circle -c green
n -t * -s 34  -x 0 -y 0 -Z 0 -z 15+i*10  -v circle -c green
n -t * -s 35  -x 0 -y 0 -Z 0 -z 15+i*10  -v circle -c green
n -t * -s 36  -x 0 -y 0 -Z 0 -z 15+i*10  -v circle -c green
n -t * -s 37  -x 0 -y 0 -Z 0 -z 15+i*10  -v circle -c green
n -t * -s 38  -x 0 -y 0 -Z 0 -z 15+i*10  -v circle -c green
n -t * -s 39  -x 0 -y 0 -Z 0 -z 15+i*10  -v circle -c green
V -t * -v 1.0a5 -a 0
W -t * -x 500 -y 500
A -t * -n 1 -p 0 -o 0xffffffff -c 31 -a 1
A -t * -h 1 -m 2147483647 -s 0
n -t 0 -s 0 -S DLABEL -l "nodes" -L ""
n -t 0 -s 1 -S DLABEL -l "nodes" -L ""
n -t 0 -s 2 -S DLABEL -l "nodes" -L ""
n -t 0 -s 3 -S DLABEL -l "nodes" -L ""
n -t 0 -s 4 -S DLABEL -l "nodes" -L ""
n -t 0 -s 5 -S DLABEL -l "nodes" -L ""
n -t 0 -s 6 -S DLABEL -l "nodes" -L ""
n -t 0 -s 7 -S DLABEL -l "nodes" -L ""
n -t 0 -s 8 -S DLABEL -l "nodes" -L ""
n -t 0 -s 9 -S DLABEL -l "nodes" -L ""
n -t 0 -s 10 -S DLABEL -l "nodes" -L ""
n -t 0 -s 11 -S DLABEL -l "nodes" -L ""
n -t 0 -s 12 -S DLABEL -l "nodes" -L ""
n -t 0 -s 13 -S DLABEL -l "nodes" -L ""
n -t 0 -s 14 -S DLABEL -l "nodes" -L ""
n -t 0 -s 15 -S DLABEL -l "nodes" -L ""
n -t 0 -s 16 -S DLABEL -l "nodes" -L ""
n -t 0 -s 17 -S DLABEL -l "nodes" -L ""
n -t 0 -s 18 -S DLABEL -l "nodes" -L ""
n -t 0 -s 19 -S DLABEL -l "nodes" -L ""
n -t 0 -s 20 -S DLABEL -l "nodes" -L ""
n -t 0 -s 21 -S DLABEL -l "nodes" -L ""
n -t 0 -s 22 -S DLABEL -l "nodes" -L ""
n -t 0 -s 23 -S DLABEL -l "nodes" -L ""
n -t 0 -s 24 -S DLABEL -l "nodes" -L ""
n -t 0 -s 25 -S DLABEL -l "nodes" -L ""
n -t 0 -s 26 -S DLABEL -l "nodes" -L ""
n -t 0 -s 27 -S DLABEL -l "nodes" -L ""
n -t 0 -s 28 -S DLABEL -l "nodes" -L ""
n -t 0 -s 29 -S DLABEL -l "nodes" -L ""
n -t 0 -s 30 -S DLABEL -l "nodes" -L ""
n -t 0 -s 31 -S DLABEL -l "nodes" -L ""
n -t 0 -s 32 -S DLABEL -l "nodes" -L ""
n -t 0 -s 33 -S DLABEL -l "nodes" -L ""
n -t 0 -s 34 -S DLABEL -l "nodes" -L ""
n -t 0 -s 35 -S DLABEL -l "nodes" -L ""
n -t 0 -s 36 -S DLABEL -l "nodes" -L ""
n -t 0 -s 37 -S DLABEL -l "nodes" -L ""
n -t 0 -s 38 -S DLABEL -l "nodes" -L ""
n -t 0 -s 39 -S DLABEL -l "nodes" -L ""
n -t 0.000000 -s 0 -x 0.000000 -y 0.000000 -U 7071.067812 -V 7071.067812 -T 0.007071
n -t 0.000000 -s 1 -x 0.000000 -y 0.000000 -U 3162.277660 -V 9486.832981 -T 0.015811
n -t 0.000000 -s 2 -x 0.000000 -y 0.000000 -U 1961.161351 -V 9805.806757 -T 0.025495
n -t 0.000000 -s 3 -x 0.000000 -y 0.000000 -U 9950.371902 -V 995.037190 -T 0.005025
n -t 0.000000 -s 4 -x 0.000000 -y 0.000000 -U 1104.315261 -V 9938.837347 -T 0.045277
n -t 0.000000 -s 5 -x 0.000000 -y 0.000000 -U 9486.832981 -V 3162.277660 -T 0.015811
n -t 0.000000 -s 6 -x 0.000000 -y 0.000000 -U 7071.067812 -V 7071.067812 -T 0.021213
n -t 0.000000 -s 7 -x 0.000000 -y 0.000000 -U 5144.957554 -V 8574.929257 -T 0.029155
n -t 0.000000 -s 8 -x 0.000000 -y 0.000000 -U 9994.449070 -V 333.148302 -T 0.015008
n -t 0.000000 -s 9 -x 0.000000 -y 0.000000 -U 3162.277660 -V 9486.832981 -T 0.047434
n -t 0.000000 -s 10 -x 0.000000 -y 0.000000 -U 9805.806757 -V 1961.161351 -T 0.025495
n -t 0.000000 -s 11 -x 0.000000 -y 0.000000 -U 8574.929257 -V 5144.957554 -T 0.029155
n -t 0.000000 -s 12 -x 0.000000 -y 0.000000 -U 7071.067812 -V 7071.067812 -T 0.035355
n -t 0.000000 -s 13 -x 0.000000 -y 0.000000 -U 9998.000600 -V 199.960012 -T 0.025005
n -t 0.000000 -s 14 -x 0.000000 -y 0.000000 -U 4856.429312 -V 8741.572761 -T 0.051478
n -t 0.000000 -s 15 -x 0.000000 -y 0.000000 -U 995.037190 -V 9950.371902 -T 0.005025
n -t 0.000000 -s 16 -x 0.000000 -y 0.000000 -U 333.148302 -V 9994.449070 -T 0.015008
n -t 0.000000 -s 17 -x 0.000000 -y 0.000000 -U 199.960012 -V 9998.000600 -T 0.025005
n -t 0.000000 -s 18 -x 0.000000 -y 0.000000 -U 7071.067812 -V 7071.067812 -T 0.000707
n -t 0.000000 -s 19 -x 0.000000 -y 0.000000 -U 111.104253 -V 9999.382773 -T 0.045003
n -t 0.000000 -s 20 -x 0.000000 -y 0.000000 -U 9938.837347 -V 1104.315261 -T 0.045277
n -t 0.000000 -s 21 -x 0.000000 -y 0.000000 -U 9486.832981 -V 3162.277660 -T 0.047434
n -t 0.000000 -s 22 -x 0.000000 -y 0.000000 -U 8741.572761 -V 4856.429312 -T 0.051478
n -t 0.000000 -s 23 -x 0.000000 -y 0.000000 -U 9999.382773 -V 111.104253 -T 0.045003
n -t 0.000000 -s 24 -x 0.000000 -y 0.000000 -U 7071.067812 -V 7071.067812 -T 0.063640
n -t 0.000000 -s 25 -x 0.000000 -y 0.000000 -U 7071.067812 -V 7071.067812 -T 0.000014
n -t 0.000000 -s 26 -x 0.000000 -y 0.000000 -U 9997.531778 -V 222.167373 -T 0.045011
n -t 0.000000 -s 27 -x 0.000000 -y 0.000000 -U 8940.685598 -V 4479.301402 -T 0.055812
n -t 0.000000 -s 28 -x 0.000000 -y 0.000000 -U 9999.498032 -V 100.195371 -T 0.049903
n -t 0.000000 -s 29 -x 0.000000 -y 0.000000 -U 9576.676757 -V 2878.760548 -T 0.052106
n -t 0.000000 -s 30 -x 0.000000 -y 0.000000 -U 9945.054529 -V 1046.847845 -T 0.047762
n -t 0.000000 -s 31 -x 0.000000 -y 0.000000 -U 9429.903336 -V 3328.201177 -T 0.045069
n -t 0.000000 -s 32 -x 0.000000 -y 0.000000 -U 8320.502943 -V 5547.001962 -T 0.045069
n -t 0.000000 -s 33 -x 0.000000 -y 0.000000 -U 9998.347517 -V 181.788137 -T 0.027505
n -t 0.000000 -s 34 -x 0.000000 -y 0.000000 -U 5214.500095 -V 8532.818337 -T 0.052738
n -t 0.000000 -s 35 -x 0.000000 -y 0.000000 -U 9999.980080 -V 19.960040 -T 0.005010
n -t 0.000000 -s 36 -x 0.000000 -y 0.000000 -U 9987.523389 -V 499.376169 -T 0.020025
n -t 0.000000 -s 37 -x 0.000000 -y 0.000000 -U 7917.147213 -V 6108.909887 -T 0.040924
n -t 0.000000 -s 38 -x 0.000000 -y 0.000000 -U 9997.509700 -V 223.158699 -T 0.022406
n -t 0.000000 -s 39 -x 0.000000 -y 0.000000 -U 9187.360473 -V 3948.722266 -T 0.037987
+ -t 0.100000000 -s 0 -d -1 -p tcp -e 40 -c 2 -a 0 -i 0 -k AGT 
- -t 0.100000000 -s 0 -d -1 -p tcp -e 40 -c 2 -a 0 -i 0 -k AGT
h -t 0.100000000 -s 0 -d -1 -p tcp -e 40 -c 2 -a 0 -i 0 -k AGT
+ -t 0.100000000 -s 0 -d -1 -p AODV -e 48 -c 2 -a 0 -i 0 -k RTR 
- -t 0.100000000 -s 0 -d -1 -p AODV -e 48 -c 2 -a 0 -i 0 -k RTR
h -t 0.100000000 -s 0 -d -1 -p AODV -e 48 -c 2 -a 0 -i 0 -k RTR
+ -t 0.100295000 -s 0 -d -1 -p AODV -e 106 -c 2 -a 0 -i 0 -k MAC 
- -t 0.100295000 -s 0 -d -1 -p AODV -e 106 -c 2 -a 0 -i 0 -k MAC
h -t 0.100295000 -s 0 -d -1 -p AODV -e 106 -c 2 -a 0 -i 0 -k MAC
r -t 0.101143150 -s 3 -d -1 -p AODV -e 48 -c 2 -a 0 -i 0 -k MAC
r -t 0.101143150 -s 15 -d -1 -p AODV -e 48 -c 2 -a 0 -i 0 -k MAC
r -t 0.101143166 -s 35 -d -1 -p AODV -e 48 -c 2 -a 0 -i 0 -k MAC
r -t 0.101143212 -s 18 -d -1 -p AODV -e 48 -c 2 -a 0 -i 0 -k MAC
r -t 0.101143235 -s 25 -d -1 -p AODV -e 48 -c 2 -a 0 -i 0 -k MAC
r -t 0.101143333 -s 1 -d -1 -p AODV -e 48 -c 2 -a 0 -i 0 -k MAC
r -t 0.101143333 -s 5 -d -1 -p AODV -e 48 -c 2 -a 0 -i 0 -k MAC
r -t 0.101143366 -s 8 -d -1 -p AODV -e 48 -c 2 -a 0 -i 0 -k MAC
r -t 0.101143366 -s 16 -d -1 -p AODV -e 48 -c 2 -a 0 -i 0 -k MAC
r -t 0.101143471 -s 6 -d -1 -p AODV -e 48 -c 2 -a 0 -i 0 -k MAC
r -t 0.101143517 -s 36 -d -1 -p AODV -e 48 -c 2 -a 0 -i 0 -k MAC
r -t 0.101143599 -s 38 -d -1 -p AODV -e 48 -c 2 -a 0 -i 0 -k MAC
r -t 0.101143667 -s 2 -d -1 -p AODV -e 48 -c 2 -a 0 -i 0 -k MAC
r -t 0.101143667 -s 10 -d -1 -p AODV -e 48 -c 2 -a 0 -i 0 -k MAC
r -t 0.101143683 -s 13 -d -1 -p AODV -e 48 -c 2 -a 0 -i 0 -k MAC
r -t 0.101143683 -s 17 -d -1 -p AODV -e 48 -c 2 -a 0 -i 0 -k MAC
r -t 0.101143745 -s 7 -d -1 -p AODV -e 48 -c 2 -a 0 -i 0 -k MAC
r -t 0.101143745 -s 11 -d -1 -p AODV -e 48 -c 2 -a 0 -i 0 -k MAC
r -t 0.101143765 -s 33 -d -1 -p AODV -e 48 -c 2 -a 0 -i 0 -k MAC
r -t 0.101168150 -s 3 -d -1 -p AODV -e 48 -c 2 -a 0 -i 0 -k RTR
r -t 0.101168150 -s 15 -d -1 -p AODV -e 48 -c 2 -a 0 -i 0 -k RTR
r -t 0.101168166 -s 35 -d -1 -p AODV -e 48 -c 2 -a 0 -i 0 -k RTR
r -t 0.101168212 -s 18 -d -1 -p AODV -e 48 -c 2 -a 0 -i 0 -k RTR
r -t 0.101168235 -s 25 -d -1 -p AODV -e 48 -c 2 -a 0 -i 0 -k RTR
r -t 0.101168333 -s 1 -d -1 -p AODV -e 48 -c 2 -a 0 -i 0 -k RTR
r -t 0.101168333 -s 5 -d -1 -p AODV -e 48 -c 2 -a 0 -i 0 -k RTR
+ -t 0.101168333 -s 1 -d 0 -p AODV -e 44 -c 2 -a 0 -i 0 -k RTR 
- -t 0.101168333 -s 1 -d 0 -p AODV -e 44 -c 2 -a 0 -i 0 -k RTR
h -t 0.101168333 -s 1 -d 0 -p AODV -e 44 -c 2 -a 0 -i 0 -k RTR
r -t 0.101168366 -s 8 -d -1 -p AODV -e 48 -c 2 -a 0 -i 0 -k RTR
r -t 0.101168366 -s 16 -d -1 -p AODV -e 48 -c 2 -a 0 -i 0 -k RTR
r -t 0.101168471 -s 6 -d -1 -p AODV -e 48 -c 2 -a 0 -i 0 -k RTR
r -t 0.101168517 -s 36 -d -1 -p AODV -e 48 -c 2 -a 0 -i 0 -k RTR
r -t 0.101168599 -s 38 -d -1 -p AODV -e 48 -c 2 -a 0 -i 0 -k RTR
r -t 0.101168667 -s 2 -d -1 -p AODV -e 48 -c 2 -a 0 -i 0 -k RTR
r -t 0.101168667 -s 10 -d -1 -p AODV -e 48 -c 2 -a 0 -i 0 -k RTR
r -t 0.101168683 -s 13 -d -1 -p AODV -e 48 -c 2 -a 0 -i 0 -k RTR
r -t 0.101168683 -s 17 -d -1 -p AODV -e 48 -c 2 -a 0 -i 0 -k RTR
r -t 0.101168745 -s 7 -d -1 -p AODV -e 48 -c 2 -a 0 -i 0 -k RTR
r -t 0.101168745 -s 11 -d -1 -p AODV -e 48 -c 2 -a 0 -i 0 -k RTR
r -t 0.101168765 -s 33 -d -1 -p AODV -e 48 -c 2 -a 0 -i 0 -k RTR
+ -t 0.101276250 -s 35 -d -1 -p AODV -e 48 -c 2 -a 0 -i 0 -k RTR 
- -t 0.101276250 -s 35 -d -1 -p AODV -e 48 -c 2 -a 0 -i 0 -k RTR
h -t 0.101276250 -s 35 -d -1 -p AODV -e 48 -c 2 -a 0 -i 0 -k RTR
+ -t 0.101444258 -s 17 -d -1 -p AODV -e 48 -c 2 -a 0 -i 0 -k RTR 
- -t 0.101444258 -s 17 -d -1 -p AODV -e 48 -c 2 -a 0 -i 0 -k RTR
h -t 0.101444258 -s 17 -d -1 -p AODV -e 48 -c 2 -a 0 -i 0 -k RTR
+ -t 0.101523333 -s 1 -d -1 -p ARP -e 86 -c 2 -a 0 -i 0 -k MAC 
- -t 0.101523333 -s 1 -d -1 -p ARP -e 86 -c 2 -a 0 -i 0 -k MAC
h -t 0.101523333 -s 1 -d -1 -p ARP -e 86 -c 2 -a 0 -i 0 -k MAC
+ -t 0.101752176 -s 15 -d -1 -p AODV -e 48 -c 2 -a 0 -i 0 -k RTR 
- -t 0.101752176 -s 15 -d -1 -p AODV -e 48 -c 2 -a 0 -i 0 -k RTR
h -t 0.101752176 -s 15 -d -1 -p AODV -e 48 -c 2 -a 0 -i 0 -k RTR
r -t 0.102211483 -s 16 -d -1 -p ARP -e 28 -c 2 -a 0 -i 0 -k MAC
r -t 0.102211667 -s 2 -d -1 -p ARP -e 28 -c 2 -a 0 -i 0 -k MAC
r -t 0.102211667 -s 0 -d -1 -p ARP -e 28 -c 2 -a 0 -i 0 -k MAC
r -t 0.102211667 -s 6 -d -1 -p ARP -e 28 -c 2 -a 0 -i 0 -k MAC
r -t 0.102211699 -s 15 -d -1 -p ARP -e 28 -c 2 -a 0 -i 0 -k MAC
r -t 0.102211699 -s 17 -d -1 -p ARP -e 28 -c 2 -a 0 -i 0 -k MAC
r -t 0.102211805 -s 7 -d -1 -p ARP -e 28 -c 2 -a 0 -i 0 -k MAC
r -t 0.102211805 -s 5 -d -1 -p ARP -e 28 -c 2 -a 0 -i 0 -k MAC
r -t 0.102211817 -s 3 -d -1 -p ARP -e 28 -c 2 -a 0 -i 0 -k MAC
r -t 0.102211833 -s 35 -d -1 -p ARP -e 28 -c 2 -a 0 -i 0 -k MAC
r -t 0.102211839 -s 18 -d -1 -p ARP -e 28 -c 2 -a 0 -i 0 -k MAC
r -t 0.102211860 -s 25 -d -1 -p ARP -e 28 -c 2 -a 0 -i 0 -k MAC
r -t 0.102211920 -s 8 -d -1 -p ARP -e 28 -c 2 -a 0 -i 0 -k MAC
r -t 0.102212000 -s 11 -d -1 -p ARP -e 28 -c 2 -a 0 -i 0 -k MAC
r -t 0.102212017 -s 36 -d -1 -p ARP -e 28 -c 2 -a 0 -i 0 -k MAC
r -t 0.102212079 -s 12 -d -1 -p ARP -e 28 -c 2 -a 0 -i 0 -k MAC
r -t 0.102212079 -s 10 -d -1 -p ARP -e 28 -c 2 -a 0 -i 0 -k MAC
r -t 0.102212088 -s 38 -d -1 -p ARP -e 28 -c 2 -a 0 -i 0 -k MAC
r -t 0.102212157 -s 13 -d -1 -p ARP -e 28 -c 2 -a 0 -i 0 -k MAC
+ -t 0.102281699 -s 17 -d -1 -p AODV -e 106 -c 2 -a 0 -i 0 -k MAC 
- -t 0.102281699 -s 17 -d -1 -p AODV -e 106 -c 2 -a 0 -i 0 -k MAC
h -t 0.102281699 -s 17 -d -1 -p AODV -e 106 -c 2 -a 0 -i 0 -k MAC
+ -t 0.102288463 -s 3 -d -1 -p AODV -e 48 -c 2 -a 0 -i 0 -k RTR 
- -t 0.102288463 -s 3 -d -1 -p AODV -e 48 -c 2 -a 0 -i 0 -k RTR
h -t 0.102288463 -s 3 -d -1 -p AODV -e 48 -c 2 -a 0 -i 0 -k RTR
+ -t 0.102399368 -s 5 -d -1 -p AODV -e 48 -c 2 -a 0 -i 0 -k RTR 
- -t 0.102399368 -s 5 -d -1 -p AODV -e 48 -c 2 -a 0 -i 0 -k RTR
h -t 0.102399368 -s 5 -d -1 -p AODV -e 48 -c 2 -a 0 -i 0 -k RTR
+ -t 0.103030888 -s 11 -d -1 -p AODV -e 48 -c 2 -a 0 -i 0 -k RTR 
- -t 0.103030888 -s 11 -d -1 -p AODV -e 48 -c 2 -a 0 -i 0 -k RTR
h -t 0.103030888 -s 11 -d -1 -p AODV -e 48 -c 2 -a 0 -i 0 -k RTR
r -t 0.103129849 -s 2 -d -1 -p AODV -e 48 -c 2 -a 0 -i 0 -k MAC
r -t 0.103130032 -s 16 -d -1 -p AODV -e 48 -c 2 -a 0 -i 0 -k MAC
r -t 0.103130064 -s 1 -d -1 -p AODV -e 48 -c 2 -a 0 -i 0 -k MAC
r -t 0.103130182 -s 7 -d -1 -p AODV -e 48 -c 2 -a 0 -i 0 -k MAC
r -t 0.103130286 -s 6 -d -1 -p AODV -e 48 -c 2 -a 0 -i 0 -k MAC
r -t 0.103130366 -s 19 -d -1 -p AODV -e 48 -c 2 -a 0 -i 0 -k MAC
r -t 0.103130366 -s 15 -d -1 -p AODV -e 48 -c 2 -a 0 -i 0 -k MAC
r -t 0.103130382 -s 4 -d -1 -p AODV -e 48 -c 2 -a 0 -i 0 -k MAC
r -t 0.103130382 -s 0 -d -1 -p AODV -e 48 -c 2 -a 0 -i 0 -k MAC
r -t 0.103130516 -s 18 -d -1 -p AODV -e 48 -c 2 -a 0 -i 0 -k MAC
r -t 0.103130516 -s 12 -d -1 -p AODV -e 48 -c 2 -a 0 -i 0 -k MAC
r -t 0.103130522 -s 9 -d -1 -p AODV -e 48 -c 2 -a 0 -i 0 -k MAC
r -t 0.103130522 -s 5 -d -1 -p AODV -e 48 -c 2 -a 0 -i 0 -k MAC
r -t 0.103130529 -s 3 -d -1 -p AODV -e 48 -c 2 -a 0 -i 0 -k MAC
r -t 0.103130532 -s 25 -d -1 -p AODV -e 48 -c 2 -a 0 -i 0 -k MAC
r -t 0.103154849 -s 2 -d -1 -p AODV -e 48 -c 2 -a 0 -i 0 -k RTR
r -t 0.103155032 -s 16 -d -1 -p AODV -e 48 -c 2 -a 0 -i 0 -k RTR
r -t 0.103155064 -s 1 -d -1 -p AODV -e 48 -c 2 -a 0 -i 0 -k RTR
r -t 0.103155182 -s 7 -d -1 -p AODV -e 48 -c 2 -a 0 -i 0 -k RTR
r -t 0.103155286 -s 6 -d -1 -p AODV -e 48 -c 2 -a 0 -i 0 -k RTR
r -t 0.103155366 -s 19 -d -1 -p AODV -e 48 -c 2 -a 0 -i 0 -k RTR
r -t 0.103155366 -s 15 -d -1 -p AODV -e 48 -c 2 -a 0 -i 0 -k RTR
r -t 0.103155382 -s 4 -d -1 -p AODV -e 48 -c 2 -a 0 -i 0 -k RTR
r -t 0.103155382 -s 0 -d -1 -p AODV -e 48 -c 2 -a 0 -i 0 -k RTR
r -t 0.103155516 -s 18 -d -1 -p AODV -e 48 -c 2 -a 0 -i 0 -k RTR
r -t 0.103155516 -s 12 -d -1 -p AODV -e 48 -c 2 -a 0 -i 0 -k RTR
r -t 0.103155522 -s 9 -d -1 -p AODV -e 48 -c 2 -a 0 -i 0 -k RTR
r -t 0.103155522 -s 5 -d -1 -p AODV -e 48 -c 2 -a 0 -i 0 -k RTR
r -t 0.103155529 -s 3 -d -1 -p AODV -e 48 -c 2 -a 0 -i 0 -k RTR
r -t 0.103155532 -s 25 -d -1 -p AODV -e 48 -c 2 -a 0 -i 0 -k RTR
+ -t 0.103220522 -s 5 -d -1 -p AODV -e 106 -c 2 -a 0 -i 0 -k MAC 
- -t 0.103220522 -s 5 -d -1 -p AODV -e 106 -c 2 -a 0 -i 0 -k MAC
h -t 0.103220522 -s 5 -d -1 -p AODV -e 106 -c 2 -a 0 -i 0 -k MAC
+ -t 0.103738303 -s 16 -d -1 -p AODV -e 48 -c 2 -a 0 -i 0 -k RTR 
- -t 0.103738303 -s 16 -d -1 -p AODV -e 48 -c 2 -a 0 -i 0 -k RTR
h -t 0.103738303 -s 16 -d -1 -p AODV -e 48 -c 2 -a 0 -i 0 -k RTR
+ -t 0.103786908 -s 2 -d -1 -p AODV -e 48 -c 2 -a 0 -i 0 -k RTR 
- -t 0.103786908 -s 2 -d -1 -p AODV -e 48 -c 2 -a 0 -i 0 -k RTR
h -t 0.103786908 -s 2 -d -1 -p AODV -e 48 -c 2 -a 0 -i 0 -k RTR
+ -t 0.104037524 -s 9 -d -1 -p AODV -e 48 -c 2 -a 0 -i 0 -k RTR 
- -t 0.104037524 -s 9 -d -1 -p AODV -e 48 -c 2 -a 0 -i 0 -k RTR
h -t 0.104037524 -s 9 -d -1 -p AODV -e 48 -c 2 -a 0 -i 0 -k RTR
r -t 0.104068672 -s 8 -d -1 -p AODV -e 48 -c 2 -a 0 -i 0 -k MAC
r -t 0.104068736 -s 36 -d -1 -p AODV -e 48 -c 2 -a 0 -i 0 -k MAC
r -t 0.104068811 -s 38 -d -1 -p AODV -e 48 -c 2 -a 0 -i 0 -k MAC
r -t 0.104068856 -s 6 -d -1 -p AODV -e 48 -c 2 -a 0 -i 0 -k MAC
r -t 0.104068856 -s 0 -d -1 -p AODV -e 48 -c 2 -a 0 -i 0 -k MAC
r -t 0.104068856 -s 10 -d -1 -p AODV -e 48 -c 2 -a 0 -i 0 -k MAC
r -t 0.104068888 -s 3 -d -1 -p AODV -e 48 -c 2 -a 0 -i 0 -k MAC
r -t 0.104068888 -s 13 -d -1 -p AODV -e 48 -c 2 -a 0 -i 0 -k MAC
r -t 0.104068895 -s 35 -d -1 -p AODV -e 48 -c 2 -a 0 -i 0 -k MAC
r -t 0.104068965 -s 33 -d -1 -p AODV -e 48 -c 2 -a 0 -i 0 -k MAC
r -t 0.104068994 -s 1 -d -1 -p AODV -e 48 -c 2 -a 0 -i 0 -k MAC
r -t 0.104068994 -s 11 -d -1 -p AODV -e 48 -c 2 -a 0 -i 0 -k MAC
r -t 0.104069006 -s 15 -d -1 -p AODV -e 48 -c 2 -a 0 -i 0 -k MAC
r -t 0.104069028 -s 18 -d -1 -p AODV -e 48 -c 2 -a 0 -i 0 -k MAC
r -t 0.104069049 -s 25 -d -1 -p AODV -e 48 -c 2 -a 0 -i 0 -k MAC
r -t 0.104069109 -s 16 -d -1 -p AODV -e 48 -c 2 -a 0 -i 0 -k MAC
r -t 0.104069189 -s 7 -d -1 -p AODV -e 48 -c 2 -a 0 -i 0 -k MAC
r -t 0.104069265 -s 39 -d -1 -p AODV -e 48 -c 2 -a 0 -i 0 -k MAC
r -t 0.104069268 -s 2 -d -1 -p AODV -e 48 -c 2 -a 0 -i 0 -k MAC
r -t 0.104069268 -s 12 -d -1 -p AODV -e 48 -c 2 -a 0 -i 0 -k MAC
r -t 0.104069346 -s 17 -d -1 -p AODV -e 48 -c 2 -a 0 -i 0 -k MAC
r -t 0.104093672 -s 8 -d -1 -p AODV -e 48 -c 2 -a 0 -i 0 -k RTR
r -t 0.104093736 -s 36 -d -1 -p AODV -e 48 -c 2 -a 0 -i 0 -k RTR
r -t 0.104093811 -s 38 -d -1 -p AODV -e 48 -c 2 -a 0 -i 0 -k RTR
r -t 0.104093856 -s 6 -d -1 -p AODV -e 48 -c 2 -a 0 -i 0 -k RTR
r -t 0.104093856 -s 0 -d -1 -p AODV -e 48 -c 2 -a 0 -i 0 -k RTR
r -t 0.104093856 -s 10 -d -1 -p AODV -e 48 -c 2 -a 0 -i 0 -k RTR
r -t 0.104093888 -s 3 -d -1 -p AODV -e 48 -c 2 -a 0 -i 0 -k RTR
r -t 0.104093888 -s 13 -d -1 -p AODV -e 48 -c 2 -a 0 -i 0 -k RTR
r -t 0.104093895 -s 35 -d -1 -p AODV -e 48 -c 2 -a 0 -i 0 -k RTR
r -t 0.104093965 -s 33 -d -1 -p AODV -e 48 -c 2 -a 0 -i 0 -k RTR
r -t 0.104093994 -s 1 -d -1 -p AODV -e 48 -c 2 -a 0 -i 0 -k RTR
r -t 0.104093994 -s 11 -d -1 -p AODV -e 48 -c 2 -a 0 -i 0 -k RTR
r -t 0.104094006 -s 15 -d -1 -p AODV -e 48 -c 2 -a 0 -i 0 -k RTR
r -t 0.104094028 -s 18 -d -1 -p AODV -e 48 -c 2 -a 0 -i 0 -k RTR
r -t 0.104094049 -s 25 -d -1 -p AODV -e 48 -c 2 -a 0 -i 0 -k RTR
r -t 0.104094109 -s 16 -d -1 -p AODV -e 48 -c 2 -a 0 -i 0 -k RTR
r -t 0.104094189 -s 7 -d -1 -p AODV -e 48 -c 2 -a 0 -i 0 -k RTR
r -t 0.104094265 -s 39 -d -1 -p AODV -e 48 -c 2 -a 0 -i 0 -k RTR
r -t 0.104094268 -s 2 -d -1 -p AODV -e 48 -c 2 -a 0 -i 0 -k RTR
r -t 0.104094268 -s 12 -d -1 -p AODV -e 48 -c 2 -a 0 -i 0 -k RTR
r -t 0.104094346 -s 17 -d -1 -p AODV -e 48 -c 2 -a 0 -i 0 -k RTR
+ -t 0.104179268 -s 2 -d -1 -p AODV -e 106 -c 2 -a 0 -i 0 -k MAC 
- -t 0.104179268 -s 2 -d -1 -p AODV -e 106 -c 2 -a 0 -i 0 -k MAC
h -t 0.104179268 -s 2 -d -1 -p AODV -e 106 -c 2 -a 0 -i 0 -k MAC
+ -t 0.104441915 -s 7 -d -1 -p AODV -e 48 -c 2 -a 0 -i 0 -k RTR 
- -t 0.104441915 -s 7 -d -1 -p AODV -e 48 -c 2 -a 0 -i 0 -k RTR
h -t 0.104441915 -s 7 -d -1 -p AODV -e 48 -c 2 -a 0 -i 0 -k RTR
+ -t 0.104524863 -s 25 -d -1 -p AODV -e 48 -c 2 -a 0 -i 0 -k RTR 
- -t 0.104524863 -s 25 -d -1 -p AODV -e 48 -c 2 -a 0 -i 0 -k RTR
h -t 0.104524863 -s 25 -d -1 -p AODV -e 48 -c 2 -a 0 -i 0 -k RTR
r -t 0.105027418 -s 17 -d -1 -p AODV -e 48 -c 2 -a 0 -i 0 -k MAC
r -t 0.105027601 -s 1 -d -1 -p AODV -e 48 -c 2 -a 0 -i 0 -k MAC
r -t 0.105027601 -s 7 -d -1 -p AODV -e 48 -c 2 -a 0 -i 0 -k MAC
r -t 0.105027633 -s 16 -d -1 -p AODV -e 48 -c 2 -a 0 -i 0 -k MAC
r -t 0.105027739 -s 6 -d -1 -p AODV -e 48 -c 2 -a 0 -i 0 -k MAC
r -t 0.105027934 -s 4 -d -1 -p AODV -e 48 -c 2 -a 0 -i 0 -k MAC
r -t 0.105027934 -s 0 -d -1 -p AODV -e 48 -c 2 -a 0 -i 0 -k MAC
r -t 0.105027934 -s 12 -d -1 -p AODV -e 48 -c 2 -a 0 -i 0 -k MAC
r -t 0.105027951 -s 15 -d -1 -p AODV -e 48 -c 2 -a 0 -i 0 -k MAC
r -t 0.105027951 -s 19 -d -1 -p AODV -e 48 -c 2 -a 0 -i 0 -k MAC
r -t 0.105028013 -s 9 -d -1 -p AODV -e 48 -c 2 -a 0 -i 0 -k MAC
r -t 0.105028013 -s 5 -d -1 -p AODV -e 48 -c 2 -a 0 -i 0 -k MAC
r -t 0.105028013 -s 11 -d -1 -p AODV -e 48 -c 2 -a 0 -i 0 -k MAC
r -t 0.105028084 -s 3 -d -1 -p AODV -e 48 -c 2 -a 0 -i 0 -k MAC
r -t 0.105028098 -s 18 -d -1 -p AODV -e 48 -c 2 -a 0 -i 0 -k MAC
r -t 0.105028101 -s 35 -d -1 -p AODV -e 48 -c 2 -a 0 -i 0 -k MAC
r -t 0.105052418 -s 17 -d -1 -p AODV -e 48 -c 2 -a 0 -i 0 -k RTR
r -t 0.105052601 -s 1 -d -1 -p AODV -e 48 -c 2 -a 0 -i 0 -k RTR
r -t 0.105052601 -s 7 -d -1 -p AODV -e 48 -c 2 -a 0 -i 0 -k RTR
r -t 0.105052633 -s 16 -d -1 -p AODV -e 48 -c 2 -a 0 -i 0 -k RTR
r -t 0.105052739 -s 6 -d -1 -p AODV -e 48 -c 2 -a 0 -i 0 -k RTR
r -t 0.105052934 -s 4 -d -1 -p AODV -e 48 -c 2 -a 0 -i 0 -k RTR
r -t 0.105052934 -s 0 -d -1 -p AODV -e 48 -c 2 -a 0 -i 0 -k RTR
r -t 0.105052934 -s 12 -d -1 -p AODV -e 48 -c 2 -a 0 -i 0 -k RTR
r -t 0.105052951 -s 15 -d -1 -p AODV -e 48 -c 2 -a 0 -i 0 -k RTR
r -t 0.105052951 -s 19 -d -1 -p AODV -e 48 -c 2 -a 0 -i 0 -k RTR
r -t 0.105053013 -s 9 -d -1 -p AODV -e 48 -c 2 -a 0 -i 0 -k RTR
r -t 0.105053013 -s 5 -d -1 -p AODV -e 48 -c 2 -a 0 -i 0 -k RTR
r -t 0.105053013 -s 11 -d -1 -p AODV -e 48 -c 2 -a 0 -i 0 -k RTR
r -t 0.105053084 -s 3 -d -1 -p AODV -e 48 -c 2 -a 0 -i 0 -k RTR
r -t 0.105053098 -s 18 -d -1 -p AODV -e 48 -c 2 -a 0 -i 0 -k RTR
r -t 0.105053101 -s 35 -d -1 -p AODV -e 48 -c 2 -a 0 -i 0 -k RTR
+ -t 0.105097934 -s 0 -d -1 -p RTS -e 44 -c 2 -a 0 -i 0 -k MAC 
- -t 0.105097934 -s 0 -d -1 -p RTS -e 44 -c 2 -a 0 -i 0 -k MAC
h -t 0.105097934 -s 0 -d -1 -p RTS -e 44 -c 2 -a 0 -i 0 -k MAC
+ -t 0.105425556 -s 13 -d -1 -p AODV -e 48 -c 2 -a 0 -i 0 -k RTR 
- -t 0.105425556 -s 13 -d -1 -p AODV -e 48 -c 2 -a 0 -i 0 -k RTR
h -t 0.105425556 -s 13 -d -1 -p AODV -e 48 -c 2 -a 0 -i 0 -k RTR
r -t 0.105450268 -s 1 -d -1 -p RTS -e 44 -c 2 -a 0 -i 0 -k MAC
+ -t 0.105460268 -s 1 -d -1 -p CTS -e 38 -c 2 -a 0 -i 0 -k MAC 
- -t 0.105460268 -s 1 -d -1 -p CTS -e 38 -c 2 -a 0 -i 0 -k MAC
h -t 0.105460268 -s 1 -d -1 -p CTS -e 38 -c 2 -a 0 -i 0 -k MAC
r -t 0.105764601 -s 0 -d -1 -p CTS -e 38 -c 2 -a 0 -i 0 -k MAC
+ -t 0.105774601 -s 0 -d -1 -p ARP -e 86 -c 2 -a 0 -i 0 -k MAC 
- -t 0.105774601 -s 0 -d -1 -p ARP -e 86 -c 2 -a 0 -i 0 -k MAC
h -t 0.105774601 -s 0 -d -1 -p ARP -e 86 -c 2 -a 0 -i 0 -k MAC
r -t 0.106462934 -s 1 -d -1 -p ARP -e 28 -c 2 -a 0 -i 0 -k MAC
+ -t 0.106472934 -s 1 -d -1 -p ACK -e 38 -c 2 -a 0 -i 0 -k MAC 
- -t 0.106472934 -s 1 -d -1 -p ACK -e 38 -c 2 -a 0 -i 0 -k MAC
h -t 0.106472934 -s 1 -d -1 -p ACK -e 38 -c 2 -a 0 -i 0 -k MAC
+ -t 0.106616737 -s 36 -d -1 -p AODV -e 48 -c 2 -a 0 -i 0 -k RTR 
- -t 0.106616737 -s 36 -d -1 -p AODV -e 48 -c 2 -a 0 -i 0 -k RTR
h -t 0.106616737 -s 36 -d -1 -p AODV -e 48 -c 2 -a 0 -i 0 -k RTR
+ -t 0.106717063 -s 10 -d -1 -p AODV -e 48 -c 2 -a 0 -i 0 -k RTR 
- -t 0.106717063 -s 10 -d -1 -p AODV -e 48 -c 2 -a 0 -i 0 -k RTR
h -t 0.106717063 -s 10 -d -1 -p AODV -e 48 -c 2 -a 0 -i 0 -k RTR
r -t 0.106777268 -s 0 -d -1 -p ACK -e 38 -c 2 -a 0 -i 0 -k MAC
+ -t 0.106847434 -s 35 -d -1 -p AODV -e 106 -c 2 -a 0 -i 0 -k MAC 
- -t 0.106847434 -s 35 -d -1 -p AODV -e 106 -c 2 -a 0 -i 0 -k MAC
h -t 0.106847434 -s 35 -d -1 -p AODV -e 106 -c 2 -a 0 -i 0 -k MAC
+ -t 0.107118486 -s 18 -d -1 -p AODV -e 48 -c 2 -a 0 -i 0 -k RTR 
- -t 0.107118486 -s 18 -d -1 -p AODV -e 48 -c 2 -a 0 -i 0 -k RTR
h -t 0.107118486 -s 18 -d -1 -p AODV -e 48 -c 2 -a 0 -i 0 -k RTR
+ -t 0.107367716 -s 12 -d -1 -p AODV -e 48 -c 2 -a 0 -i 0 -k RTR 
- -t 0.107367716 -s 12 -d -1 -p AODV -e 48 -c 2 -a 0 -i 0 -k RTR
h -t 0.107367716 -s 12 -d -1 -p AODV -e 48 -c 2 -a 0 -i 0 -k RTR
r -t 0.107695450 -s 3 -d -1 -p AODV -e 48 -c 2 -a 0 -i 0 -k MAC
r -t 0.107695585 -s 18 -d -1 -p AODV -e 48 -c 2 -a 0 -i 0 -k MAC
r -t 0.107695600 -s 0 -d -1 -p AODV -e 48 -c 2 -a 0 -i 0 -k MAC
r -t 0.107695601 -s 25 -d -1 -p AODV -e 48 -c 2 -a 0 -i 0 -k MAC
r -t 0.107695658 -s 15 -d -1 -p AODV -e 48 -c 2 -a 0 -i 0 -k MAC
r -t 0.107695767 -s 8 -d -1 -p AODV -e 48 -c 2 -a 0 -i 0 -k MAC
r -t 0.107695806 -s 5 -d -1 -p AODV -e 48 -c 2 -a 0 -i 0 -k MAC
r -t 0.107695934 -s 1 -d -1 -p AODV -e 48 -c 2 -a 0 -i 0 -k MAC
r -t 0.107695935 -s 36 -d -1 -p AODV -e 48 -c 2 -a 0 -i 0 -k MAC
r -t 0.107695956 -s 16 -d -1 -p AODV -e 48 -c 2 -a 0 -i 0 -k MAC
r -t 0.107696014 -s 38 -d -1 -p AODV -e 48 -c 2 -a 0 -i 0 -k MAC
r -t 0.107696034 -s 6 -d -1 -p AODV -e 48 -c 2 -a 0 -i 0 -k MAC
r -t 0.107696101 -s 13 -d -1 -p AODV -e 48 -c 2 -a 0 -i 0 -k MAC
r -t 0.107696121 -s 10 -d -1 -p AODV -e 48 -c 2 -a 0 -i 0 -k MAC
r -t 0.107696184 -s 33 -d -1 -p AODV -e 48 -c 2 -a 0 -i 0 -k MAC
r -t 0.107696267 -s 11 -d -1 -p AODV -e 48 -c 2 -a 0 -i 0 -k MAC
r -t 0.107696267 -s 2 -d -1 -p AODV -e 48 -c 2 -a 0 -i 0 -k MAC
r -t 0.107720450 -s 3 -d -1 -p AODV -e 48 -c 2 -a 0 -i 0 -k RTR
r -t 0.107720585 -s 18 -d -1 -p AODV -e 48 -c 2 -a 0 -i 0 -k RTR
r -t 0.107720600 -s 0 -d -1 -p AODV -e 48 -c 2 -a 0 -i 0 -k RTR
r -t 0.107720601 -s 25 -d -1 -p AODV -e 48 -c 2 -a 0 -i 0 -k RTR
r -t 0.107720658 -s 15 -d -1 -p AODV -e 48 -c 2 -a 0 -i 0 -k RTR
r -t 0.107720767 -s 8 -d -1 -p AODV -e 48 -c 2 -a 0 -i 0 -k RTR
r -t 0.107720806 -s 5 -d -1 -p AODV -e 48 -c 2 -a 0 -i 0 -k RTR
r -t 0.107720934 -s 1 -d -1 -p AODV -e 48 -c 2 -a 0 -i 0 -k RTR
r -t 0.107720935 -s 36 -d -1 -p AODV -e 48 -c 2 -a 0 -i 0 -k RTR
r -t 0.107720956 -s 16 -d -1 -p AODV -e 48 -c 2 -a 0 -i 0 -k RTR
r -t 0.107721014 -s 38 -d -1 -p AODV -e 48 -c 2 -a 0 -i 0 -k RTR
r -t 0.107721034 -s 6 -d -1 -p AODV -e 48 -c 2 -a 0 -i 0 -k RTR
r -t 0.107721101 -s 13 -d -1 -p AODV -e 48 -c 2 -a 0 -i 0 -k RTR
r -t 0.107721121 -s 10 -d -1 -p AODV -e 48 -c 2 -a 0 -i 0 -k RTR
r -t 0.107721184 -s 33 -d -1 -p AODV -e 48 -c 2 -a 0 -i 0 -k RTR
r -t 0.107721267 -s 11 -d -1 -p AODV -e 48 -c 2 -a 0 -i 0 -k RTR
r -t 0.107721267 -s 2 -d -1 -p AODV -e 48 -c 2 -a 0 -i 0 -k RTR
+ -t 0.107825934 -s 1 -d -1 -p RTS -e 44 -c 2 -a 0 -i 0 -k MAC 
- -t 0.107825934 -s 1 -d -1 -p RTS -e 44 -c 2 -a 0 -i 0 -k MAC
h -t 0.107825934 -s 1 -d -1 -p RTS -e 44 -c 2 -a 0 -i 0 -k MAC
+ -t 0.107854604 -s 8 -d -1 -p AODV -e 48 -c 2 -a 0 -i 0 -k RTR 
- -t 0.107854604 -s 8 -d -1 -p AODV -e 48 -c 2 -a 0 -i 0 -k RTR
h -t 0.107854604 -s 8 -d -1 -p AODV -e 48 -c 2 -a 0 -i 0 -k RTR
+ -t 0.108155204 -s 6 -d -1 -p AODV -e 48 -c 2 -a 0 -i 0 -k RTR 
- -t 0.108155204 -s 6 -d -1 -p AODV -e 48 -c 2 -a 0 -i 0 -k RTR
h -t 0.108155204 -s 6 -d -1 -p AODV -e 48 -c 2 -a 0 -i 0 -k RTR
r -t 0.108178267 -s 0 -d -1 -p RTS -e 44 -c 2 -a 0 -i 0 -k MAC
+ -t 0.108188267 -s 0 -d -1 -p CTS -e 38 -c 2 -a 0 -i 0 -k MAC 
- -t 0.108188267 -s 0 -d -1 -p CTS -e 38 -c 2 -a 0 -i 0 -k MAC
h -t 0.108188267 -s 0 -d -1 -p CTS -e 38 -c 2 -a 0 -i 0 -k MAC
+ -t 0.108484351 -s 19 -d -1 -p AODV -e 48 -c 2 -a 0 -i 0 -k RTR 
- -t 0.108484351 -s 19 -d -1 -p AODV -e 48 -c 2 -a 0 -i 0 -k RTR
h -t 0.108484351 -s 19 -d -1 -p AODV -e 48 -c 2 -a 0 -i 0 -k RTR
r -t 0.108492600 -s 1 -d -1 -p CTS -e 38 -c 2 -a 0 -i 0 -k MAC
+ -t 0.108502600 -s 1 -d 0 -p AODV -e 102 -c 2 -a 0 -i 0 -k MAC 
- -t 0.108502600 -s 1 -d 0 -p AODV -e 102 -c 2 -a 0 -i 0 -k MAC
h -t 0.108502600 -s 1 -d 0 -p AODV -e 102 -c 2 -a 0 -i 0 -k MAC
+ -t 0.109018636 -s 33 -d -1 -p AODV -e 48 -c 2 -a 0 -i 0 -k RTR 
- -t 0.109018636 -s 33 -d -1 -p AODV -e 48 -c 2 -a 0 -i 0 -k RTR
h -t 0.109018636 -s 33 -d -1 -p AODV -e 48 -c 2 -a 0 -i 0 -k RTR
r -t 0.109318934 -s 0 -d 0 -p AODV -e 44 -c 2 -a 0 -i 0 -k MAC
+ -t 0.109328934 -s 0 -d -1 -p ACK -e 38 -c 2 -a 0 -i 0 -k MAC 
- -t 0.109328934 -s 0 -d -1 -p ACK -e 38 -c 2 -a 0 -i 0 -k MAC
h -t 0.109328934 -s 0 -d -1 -p ACK -e 38 -c 2 -a 0 -i 0 -k MAC
+ -t 0.109343934 -s 0 -d 1 -p tcp -e 40 -c 2 -a 0 -i 0 -k RTR 
- -t 0.109343934 -s 0 -d 1 -p tcp -e 40 -c 2 -a 0 -i 0 -k RTR
h -t 0.109343934 -s 0 -d 1 -p tcp -e 40 -c 2 -a 0 -i 0 -k RTR
r -t 0.109633267 -s 1 -d -1 -p ACK -e 38 -c 2 -a 0 -i 0 -k MAC
+ -t 0.109703299 -s 16 -d -1 -p AODV -e 106 -c 2 -a 0 -i 0 -k MAC 
- -t 0.109703299 -s 16 -d -1 -p AODV -e 106 -c 2 -a 0 -i 0 -k MAC
h -t 0.109703299 -s 16 -d -1 -p AODV -e 106 -c 2 -a 0 -i 0 -k MAC
+ -t 0.109703679 -s 7 -d -1 -p AODV -e 106 -c 2 -a 0 -i 0 -k MAC 
- -t 0.109703679 -s 7 -d -1 -p AODV -e 106 -c 2 -a 0 -i 0 -k MAC
h -t 0.109703679 -s 7 -d -1 -p AODV -e 106 -c 2 -a 0 -i 0 -k MAC
d -t 0.109704012 -s 2 -d -1 -p AODV -e 106 -c 2 -a 0 -i 0 -k MAC
d -t 0.109704012 -s 6 -d -1 -p AODV -e 106 -c 2 -a 0 -i 0 -k MAC
d -t 0.109704150 -s 11 -d -1 -p AODV -e 106 -c 2 -a 0 -i 0 -k MAC
d -t 0.109704162 -s 17 -d -1 -p AODV -e 106 -c 2 -a 0 -i 0 -k MAC
d -t 0.109704346 -s 5 -d -1 -p AODV -e 106 -c 2 -a 0 -i 0 -k MAC
d -t 0.109704410 -s 9 -d -1 -p AODV -e 106 -c 2 -a 0 -i 0 -k MAC
d -t 0.109704446 -s 39 -d -1 -p AODV -e 106 -c 2 -a 0 -i 0 -k MAC
d -t 0.109704496 -s 8 -d -1 -p AODV -e 106 -c 2 -a 0 -i 0 -k MAC
d -t 0.109704496 -s 36 -d -1 -p AODV -e 106 -c 2 -a 0 -i 0 -k MAC
d -t 0.109704561 -s 3 -d -1 -p AODV -e 106 -c 2 -a 0 -i 0 -k MAC
d -t 0.109704576 -s 35 -d -1 -p AODV -e 106 -c 2 -a 0 -i 0 -k MAC
d -t 0.109704577 -s 32 -d -1 -p AODV -e 106 -c 2 -a 0 -i 0 -k MAC
d -t 0.109704590 -s 14 -d -1 -p AODV -e 106 -c 2 -a 0 -i 0 -k MAC
d -t 0.109704645 -s 34 -d -1 -p AODV -e 106 -c 2 -a 0 -i 0 -k MAC
+ -t 0.109935156 -s 38 -d -1 -p AODV -e 48 -c 2 -a 0 -i 0 -k RTR 
- -t 0.109935156 -s 38 -d -1 -p AODV -e 48 -c 2 -a 0 -i 0 -k RTR
h -t 0.109935156 -s 38 -d -1 -p AODV -e 48 -c 2 -a 0 -i 0 -k RTR
+ -t 0.109955389 -s 39 -d -1 -p AODV -e 48 -c 2 -a 0 -i 0 -k RTR 
- -t 0.109955389 -s 39 -d -1 -p AODV -e 48 -c 2 -a 0 -i 0 -k RTR
h -t 0.109955389 -s 39 -d -1 -p AODV -e 48 -c 2 -a 0 -i 0 -k RTR
+ -t 0.110506293 -s 4 -d -1 -p AODV -e 48 -c 2 -a 0 -i 0 -k RTR 
- -t 0.110506293 -s 4 -d -1 -p AODV -e 48 -c 2 -a 0 -i 0 -k RTR
h -t 0.110506293 -s 4 -d -1 -p AODV -e 48 -c 2 -a 0 -i 0 -k RTR
r -t 0.110551449 -s 1 -d -1 -p AODV -e 48 -c 2 -a 0 -i 0 -k MAC
r -t 0.110551633 -s 15 -d -1 -p AODV -e 48 -c 2 -a 0 -i 0 -k MAC