M 0.00000 0 (0.00, 0.00, 0.00), (50.00, 50.00), 10000.00
M 0.00000 1 (0.00, 0.00, 0.00), (50.00, 150.00), 10000.00
M 0.00000 2 (0.00, 0.00, 0.00), (50.00, 250.00), 10000.00
M 0.00000 3 (0.00, 0.00, 0.00), (50.00, 5.00), 10000.00
M 0.00000 4 (0.00, 0.00, 0.00), (50.00, 450.00), 10000.00
M 0.00000 5 (0.00, 0.00, 0.00), (150.00, 50.00), 10000.00
M 0.00000 6 (0.00, 0.00, 0.00), (150.00, 150.00), 10000.00
M 0.00000 7 (0.00, 0.00, 0.00), (150.00, 250.00), 10000.00
M 0.00000 8 (0.00, 0.00, 0.00), (150.00, 5.00), 10000.00
M 0.00000 9 (0.00, 0.00, 0.00), (150.00, 450.00), 10000.00
M 0.00000 10 (0.00, 0.00, 0.00), (250.00, 50.00), 10000.00
M 0.00000 11 (0.00, 0.00, 0.00), (250.00, 150.00), 10000.00
M 0.00000 12 (0.00, 0.00, 0.00), (250.00, 250.00), 10000.00
M 0.00000 13 (0.00, 0.00, 0.00), (250.00, 5.00), 10000.00
M 0.00000 14 (0.00, 0.00, 0.00), (250.00, 450.00), 10000.00
M 0.00000 15 (0.00, 0.00, 0.00), (5.00, 50.00), 10000.00
M 0.00000 16 (0.00, 0.00, 0.00), (5.00, 150.00), 10000.00
M 0.00000 17 (0.00, 0.00, 0.00), (5.00, 250.00), 10000.00
M 0.00000 18 (0.00, 0.00, 0.00), (5.00, 5.00), 10000.00
M 0.00000 19 (0.00, 0.00, 0.00), (5.00, 450.00), 10000.00
M 0.00000 20 (0.00, 0.00, 0.00), (450.00, 50.00), 10000.00
M 0.00000 21 (0.00, 0.00, 0.00), (450.00, 150.00), 10000.00
M 0.00000 22 (0.00, 0.00, 0.00), (450.00, 250.00), 10000.00
M 0.00000 23 (0.00, 0.00, 0.00), (450.00, 5.00), 10000.00
M 0.00000 24 (0.00, 0.00, 0.00), (450.00, 450.00), 10000.00
M 0.00000 25 (0.00, 0.00, 0.00), (0.10, 0.10), 10000.00
M 0.00000 26 (0.00, 0.00, 0.00), (450.00, 10.00), 10000.00
M 0.00000 27 (0.00, 0.00, 0.00), (499.00, 250.00), 10000.00
M 0.00000 28 (0.00, 0.00, 0.00), (499.00, 5.00), 10000.00
M 0.00000 29 (0.00, 0.00, 0.00), (499.00, 150.00), 10000.00
M 0.00000 30 (0.00, 0.00, 0.00), (475.00, 50.00), 10000.00
M 0.00000 31 (0.00, 0.00, 0.00), (425.00, 150.00), 10000.00
M 0.00000 32 (0.00, 0.00, 0.00), (375.00, 250.00), 10000.00
M 0.00000 33 (0.00, 0.00, 0.00), (275.00, 5.00), 10000.00
M 0.00000 34 (0.00, 0.00, 0.00), (275.00, 450.00), 10000.00
M 0.00000 35 (0.00, 0.00, 0.00), (50.10, 0.10), 10000.00
M 0.00000 36 (0.00, 0.00, 0.00), (200.00, 10.00), 10000.00
M 0.00000 37 (0.00, 0.00, 0.00), (324.00, 250.00), 10000.00
M 0.00000 38 (0.00, 0.00, 0.00), (224.00, 5.00), 10000.00
M 0.00000 39 (0.00, 0.00, 0.00), (349.00, 150.00), 10000.00
s 0.100000000 _0_ AGT  --- 0 tcp 40 [0 0 0 0] [energy 0.500000 ei 0.000 es 0.000 et 0.000 er 0.000] ------- [0:1 1:0 32 0] [0 0] 0 0
r 0.100000000 _0_ RTR  --- 0 tcp 40 [0 0 0 0] [energy 0.500000 ei 0.000 es 0.000 et 0.000 er 0.000] ------- [0:1 1:0 32 0] [0 0] 0 0
s 0.100000000 _0_ RTR  --- 0 AODV 48 [0 0 0 0] [energy 0.500000 ei 0.000 es 0.000 et 0.000 er 0.000] ------- [0:255 -1:255 30 0] [0x2 1 1 [1 0] [0 4]] (REQUEST)
s 0.100295000 _0_ MAC  --- 0 AODV 106 [0 ffffffff 0 800] [energy 0.500000 ei 0.000 es 0.000 et 0.000 er 0.000] ------- [0:255 -1:255 30 0] [0x2 1 1 [1 0] [0 4]] (REQUEST)
N -t 0.100295 -n 3 -e 0.398857
N -t 0.100295 -n 15 -e 0.398857
N -t 0.100295 -n 35 -e 0.398857
N -t 0.100295 -n 18 -e 0.398857
N -t 0.100295 -n 25 -e 0.398857
N -t 0.100295 -n 1 -e 0.398857
N -t 0.100295 -n 5 -e 0.398857
N -t 0.100295 -n 8 -e 0.398857
N -t 0.100295 -n 16 -e 0.398857
N -t 0.100295 -n 6 -e 0.398857
N -t 0.100296 -n 36 -e 0.398856
N -t 0.100296 -n 38 -e 0.398856
N -t 0.100296 -n 2 -e 0.398856
N -t 0.100296 -n 10 -e 0.398856
N -t 0.100296 -n 13 -e 0.398856
N -t 0.100296 -n 17 -e 0.398856
N -t 0.100296 -n 7 -e 0.398856
N -t 0.100296 -n 11 -e 0.398856
N -t 0.100296 -n 33 -e 0.398856
N -t 0.100296 -n 12 -e 0.398856
N -t 0.100296 -n 39 -e 0.398856
N -t 0.100296 -n 37 -e 0.398856
N -t 0.100296 -n 32 -e 0.398856
N -t 0.100296 -n 31 -e 0.398856
N -t 0.100296 -n 4 -e 0.398856
N -t 0.100296 -n 20 -e 0.398856
N -t 0.100296 -n 26 -e 0.398856
N -t 0.100296 -n 19 -e 0.398856
N -t 0.100296 -n 23 -e 0.398856
N -t 0.100296 -n 9 -e 0.398856
N -t 0.100296 -n 21 -e 0.398856
N -t 0.100296 -n 30 -e 0.398856
N -t 0.100296 -n 14 -e 0.398856
N -t 0.100296 -n 22 -e 0.398856
N -t 0.100297 -n 28 -e 0.398855
N -t 0.100297 -n 34 -e 0.398855
N -t 0.100297 -n 29 -e 0.398855
N -t 0.100297 -n 27 -e 0.398855
r 0.101143150 _3_ MAC  --- 0 AODV 48 [0 ffffffff 0 800] [energy 0.398857 ei 0.100 es 0.000 et 0.000 er 0.001] ------- [0:255 -1:255 30 0] [0x2 1 1 [1 0] [0 4]] (REQUEST)
r 0.101143150 _15_ MAC  --- 0 AODV 48 [0 ffffffff 0 800] [energy 0.398857 ei 0.100 es 0.000 et 0.000 er 0.001] ------- [0:255 -1:255 30 0] [0x2 1 1 [1 0] [0 4]] (REQUEST)
r 0.101143166 _35_ MAC  --- 0 AODV 48 [0 ffffffff 0 800] [energy 0.398857 ei 0.100 es 0.000 et 0.000 er 0.001] ------- [0:255 -1:255 30 0] [0x2 1 1 [1 0] [0 4]] (REQUEST)
r 0.101143212 _18_ MAC  --- 0 AODV 48 [0 ffffffff 0 800] [energy 0.398857 ei 0.100 es 0.000 et 0.000 er 0.001] ------- [0:255 -1:255 30 0] [0x2 1 1 [1 0] [0 4]] (REQUEST)
r 0.101143235 _25_ MAC  --- 0 AODV 48 [0 ffffffff 0 800] [energy 0.398857 ei 0.100 es 0.000 et 0.000 er 0.001] ------- [0:255 -1:255 30 0] [0x2 1 1 [1 0] [0 4]] (REQUEST)
r 0.101143333 _1_ MAC  --- 0 AODV 48 [0 ffffffff 0 800] [energy 0.398857 ei 0.100 es 0.000 et 0.000 er 0.001] ------- [0:255 -1:255 30 0] [0x2 1 1 [1 0] [0 4]] (REQUEST)
r 0.101143333 _5_ MAC  --- 0 AODV 48 [0 ffffffff 0 800] [energy 0.398857 ei 0.100 es 0.000 et 0.000 er 0.001] ------- [0:255 -1:255 30 0] [0x2 1 1 [1 0] [0 4]] (REQUEST)
r 0.101143366 _8_ MAC  --- 0 AODV 48 [0 ffffffff 0 800] [energy 0.398857 ei 0.100 es 0.000 et 0.000 er 0.001] ------- [0:255 -1:255 30 0] [0x2 1 1 [1 0] [0 4]] (REQUEST)
r 0.101143366 _16_ MAC  --- 0 AODV 48 [0 ffffffff 0 800] [energy 0.398857 ei 0.100 es 0.000 et 0.000 er 0.001] ------- [0:255 -1:255 30 0] [0x2 1 1 [1 0] [0 4]] (REQUEST)
r 0.101143471 _6_ MAC  --- 0 AODV 48 [0 ffffffff 0 800] [energy 0.398857 ei 0.100 es 0.000 et 0.000 er 0.001] ------- [0:255 -1:255 30 0] [0x2 1 1 [1 0] [0 4]] (REQUEST)
r 0.101143517 _36_ MAC  --- 0 AODV 48 [0 ffffffff 0 800] [energy 0.398856 ei 0.100 es 0.000 et 0.000 er 0.001] ------- [0:255 -1:255 30 0] [0x2 1 1 [1 0] [0 4]] (REQUEST)
r 0.101143599 _38_ MAC  --- 0 AODV 48 [0 ffffffff 0 800] [energy 0.398856 ei 0.100 es 0.000 et 0.000 er 0.001] ------- [0:255 -1:255 30 0] [0x2 1 1 [1 0] [0 4]] (REQUEST)
r 0.101143667 _2_ MAC  --- 0 AODV 48 [0 ffffffff 0 800] [energy 0.398856 ei 0.100 es 0.000 et 0.000 er 0.001] ------- [0:255 -1:255 30 0] [0x2 1 1 [1 0] [0 4]] (REQUEST)
r 0.101143667 _10_ MAC  --- 0 AODV 48 [0 ffffffff 0 800] [energy 0.398856 ei 0.100 es 0.000 et 0.000 er 0.001] ------- [0:255 -1:255 30 0] [0x2 1 1 [1 0] [0 4]] (REQUEST)
r 0.101143683 _13_ MAC  --- 0 AODV 48 [0 ffffffff 0 800] [energy 0.398856 ei 0.100 es 0.000 et 0.000 er 0.001] ------- [0:255 -1:255 30 0] [0x2 1 1 [1 0] [0 4]] (REQUEST)
r 0.101143683 _17_ MAC  --- 0 AODV 48 [0 ffffffff 0 800] [energy 0.398856 ei 0.100 es 0.000 et 0.000 er 0.001] ------- [0:255 -1:255 30 0] [0x2 1 1 [1 0] [0 4]] (REQUEST)
r 0.101143745 _7_ MAC  --- 0 AODV 48 [0 ffffffff 0 800] [energy 0.398856 ei 0.100 es 0.000 et 0.000 er 0.001] ------- [0:255 -1:255 30 0] [0x2 1 1 [1 0] [0 4]] (REQUEST)
r 0.101143745 _11_ MAC  --- 0 AODV 48 [0 ffffffff 0 800] [energy 0.398856 ei 0.100 es 0.000 et 0.000 er 0.001] ------- [0:255 -1:255 30 0] [0x2 1 1 [1 0] [0 4]] (REQUEST)
r 0.101143765 _33_ MAC  --- 0 AODV 48 [0 ffffffff 0 800] [energy 0.398856 ei 0.100 es 0.000 et 0.000 er 0.001] ------- [0:255 -1:255 30 0] [0x2 1 1 [1 0] [0 4]] (REQUEST)
r 0.101168150 _3_ RTR  --- 0 AODV 48 [0 ffffffff 0 800] [energy 0.398857 ei 0.100 es 0.000 et 0.000 er 0.001] ------- [0:255 -1:255 30 0] [0x2 1 1 [1 0] [0 4]] (REQUEST)
r 0.101168150 _15_ RTR  --- 0 AODV 48 [0 ffffffff 0 800] [energy 0.398857 ei 0.100 es 0.000 et 0.000 er 0.001] ------- [0:255 -1:255 30 0] [0x2 1 1 [1 0] [0 4]] (REQUEST)
r 0.101168166 _35_ RTR  --- 0 AODV 48 [0 ffffffff 0 800] [energy 0.398857 ei 0.100 es 0.000 et 0.000 er 0.001] ------- [0:255 -1:255 30 0] [0x2 1 1 [1 0] [0 4]] (REQUEST)
r 0.101168212 _18_ RTR  --- 0 AODV 48 [0 ffffffff 0 800] [energy 0.398857 ei 0.100 es 0.000 et 0.000 er 0.001] ------- [0:255 -1:255 30 0] [0x2 1 1 [1 0] [0 4]] (REQUEST)
r 0.101168235 _25_ RTR  --- 0 AODV 48 [0 ffffffff 0 800] [energy 0.398857 ei 0.100 es 0.000 et 0.000 er 0.001] ------- [0:255 -1:255 30 0] [0x2 1 1 [1 0] [0 4]] (REQUEST)
r 0.101168333 _1_ RTR  --- 0 AODV 48 [0 ffffffff 0 800] [energy 0.398857 ei 0.100 es 0.000 et 0.000 er 0.001] ------- [0:255 -1:255 30 0] [0x2 1 1 [1 0] [0 4]] (REQUEST)
r 0.101168333 _5_ RTR  --- 0 AODV 48 [0 ffffffff 0 800] [energy 0.398857 ei 0.100 es 0.000 et 0.000 er 0.001] ------- [0:255 -1:255 30 0] [0x2 1 1 [1 0] [0 4]] (REQUEST)
s 0.101168333 _1_ RTR  --- 0 AODV 44 [0 0 0 0] [energy 0.398857 ei 0.100 es 0.000 et 0.000 er 0.001] ------- [1:255 0:255 30 0] [0x4 1 [1 4] 10.000000] (REPLY)
r 0.101168366 _8_ RTR  --- 0 AODV 48 [0 ffffffff 0 800] [energy 0.398857 ei 0.100 es 0.000 et 0.000 er 0.001] ------- [0:255 -1:255 30 0] [0x2 1 1 [1 0] [0 4]] (REQUEST)
r 0.101168366 _16_ RTR  --- 0 AODV 48 [0 ffffffff 0 800] [energy 0.398857 ei 0.100 es 0.000 et 0.000 er 0.001] ------- [0:255 -1:255 30 0] [0x2 1 1 [1 0] [0 4]] (REQUEST)
r 0.101168471 _6_ RTR  --- 0 AODV 48 [0 ffffffff 0 800] [energy 0.398857 ei 0.100 es 0.000 et 0.000 er 0.001] ------- [0:255 -1:255 30 0] [0x2 1 1 [1 0] [0 4]] (REQUEST)
r 0.101168517 _36_ RTR  --- 0 AODV 48 [0 ffffffff 0 800] [energy 0.398856 ei 0.100 es 0.000 et 0.000 er 0.001] ------- [0:255 -1:255 30 0] [0x2 1 1 [1 0] [0 4]] (REQUEST)
r 0.101168599 _38_ RTR  --- 0 AODV 48 [0 ffffffff 0 800] [energy 0.398856 ei 0.100 es 0.000 et 0.000 er 0.001] ------- [0:255 -1:255 30 0] [0x2 1 1 [1 0] [0 4]] (REQUEST)
r 0.101168667 _2_ RTR  --- 0 AODV 48 [0 ffffffff 0 800] [energy 0.398856 ei 0.100 es 0.000 et 0.000 er 0.001] ------- [0:255 -1:255 30 0] [0x2 1 1 [1 0] [0 4]] (REQUEST)
r 0.101168667 _10_ RTR  --- 0 AODV 48 [0 ffffffff 0 800] [energy 0.398856 ei 0.100 es 0.000 et 0.000 er 0.001] ------- [0:255 -1:255 30 0] [0x2 1 1 [1 0] [0 4]] (REQUEST)
r 0.101168683 _13_ RTR  --- 0 AODV 48 [0 ffffffff 0 800] [energy 0.398856 ei 0.100 es 0.000 et 0.000 er 0.001] ------- [0:255 -1:255 30 0] [0x2 1 1 [1 0] [0 4]] (REQUEST)
r 0.101168683 _17_ RTR  --- 0 AODV 48 [0 ffffffff 0 800] [energy 0.398856 ei 0.100 es 0.000 et 0.000 er 0.001] ------- [0:255 -1:255 30 0] [0x2 1 1 [1 0] [0 4]] (REQUEST)
r 0.101168745 _7_ RTR  --- 0 AODV 48 [0 ffffffff 0 800] [energy 0.398856 ei 0.100 es 0.000 et 0.000 er 0.001] ------- [0:255 -1:255 30 0] [0x2 1 1 [1 0] [0 4]] (REQUEST)
r 0.101168745 _11_ RTR  --- 0 AODV 48 [0 ffffffff 0 800] [energy 0.398856 ei 0.100 es 0.000 et 0.000 er 0.001] ------- [0:255 -1:255 30 0] [0x2 1 1 [1 0] [0 4]] (REQUEST)
r 0.101168765 _33_ RTR  --- 0 AODV 48 [0 ffffffff 0 800] [energy 0.398856 ei 0.100 es 0.000 et 0.000 er 0.001] ------- [0:255 -1:255 30 0] [0x2 1 1 [1 0] [0 4]] (REQUEST)
s 0.101276250 _35_ RTR  --- 0 AODV 48 [0 ffffffff 0 800] [energy 0.398857 ei 0.100 es 0.000 et 0.000 er 0.001] ------- [35:255 -1:255 29 0] [0x2 2 1 [1 0] [0 4]] (REQUEST)
s 0.101444258 _17_ RTR  --- 0 AODV 48 [0 ffffffff 0 800] [energy 0.398856 ei 0.100 es 0.000 et 0.000 er 0.001] ------- [17:255 -1:255 29 0] [0x2 2 1 [1 0] [0 4]] (REQUEST)
s 0.101523333 _1_ MAC  --- 0 ARP 86 [0 ffffffff 1 806] [energy 0.398857 ei 0.100 es 0.000 et 0.000 er 0.001] ------- [REQUEST 1/1 0/0]
N -t 0.101523 -n 16 -e 0.397789
N -t 0.101524 -n 2 -e 0.397788
N -t 0.101524 -n 0 -e 0.397788
N -t 0.101524 -n 6 -e 0.397788
N -t 0.101524 -n 15 -e 0.397788
N -t 0.101524 -n 17 -e 0.397788
N -t 0.101524 -n 7 -e 0.397788
N -t 0.101524 -n 5 -e 0.397788
N -t 0.101524 -n 3 -e 0.397788
N -t 0.101524 -n 35 -e 0.397788
N -t 0.101524 -n 18 -e 0.397788
N -t 0.101524 -n 25 -e 0.397788
N -t 0.101524 -n 8 -e 0.397788
N -t 0.101524 -n 11 -e 0.397788
N -t 0.101524 -n 36 -e 0.397788
N -t 0.101524 -n 12 -e 0.397788
N -t 0.101524 -n 10 -e 0.397788
N -t 0.101524 -n 38 -e 0.397788
N -t 0.101524 -n 13 -e 0.397788
N -t 0.101524 -n 33 -e 0.397788
N -t 0.101524 -n 37 -e 0.397788
N -t 0.101524 -n 39 -e 0.397788
N -t 0.101524 -n 4 -e 0.397788
N -t 0.101524 -n 19 -e 0.397788
N -t 0.101524 -n 9 -e 0.397788
N -t 0.101524 -n 32 -e 0.397788
N -t 0.101525 -n 14 -e 0.397787
N -t 0.101525 -n 34 -e 0.397787
N -t 0.101525 -n 31 -e 0.397787
N -t 0.101525 -n 21 -e 0.397787
N -t 0.101525 -n 22 -e 0.397787
N -t 0.101525 -n 20 -e 0.397787
N -t 0.101525 -n 26 -e 0.397787
N -t 0.101525 -n 23 -e 0.397787
N -t 0.101525 -n 30 -e 0.397787
N -t 0.101525 -n 29 -e 0.397787
N -t 0.101525 -n 27 -e 0.397787
N -t 0.101525 -n 28 -e 0.397787
N -t 0.101525 -n 24 -e 0.397787
s 0.101752176 _15_ RTR  --- 0 AODV 48 [0 ffffffff 0 800] [energy 0.397788 ei 0.101 es 0.000 et 0.000 er 0.002] ------- [15:255 -1:255 29 0] [0x2 2 1 [1 0] [0 4]] (REQUEST)
r 0.102211483 _16_ MAC  --- 0 ARP 28 [0 ffffffff 1 806] [energy 0.397789 ei 0.101 es 0.000 et 0.000 er 0.002] ------- [REQUEST 1/1 0/0]
r 0.102211667 _2_ MAC  --- 0 ARP 28 [0 ffffffff 1 806] [energy 0.397788 ei 0.101 es 0.000 et 0.000 er 0.002] ------- [REQUEST 1/1 0/0]
r 0.102211667 _0_ MAC  --- 0 ARP 28 [0 ffffffff 1 806] [energy 0.397788 ei 0.101 es 0.000 et 0.001 er 0.001] ------- [REQUEST 1/1 0/0]
r 0.102211667 _6_ MAC  --- 0 ARP 28 [0 ffffffff 1 806] [energy 0.397788 ei 0.101 es 0.000 et 0.000 er 0.002] ------- [REQUEST 1/1 0/0]
r 0.102211699 _15_ MAC  --- 0 ARP 28 [0 ffffffff 1 806] [energy 0.397788 ei 0.101 es 0.000 et 0.000 er 0.002] ------- [REQUEST 1/1 0/0]
r 0.102211699 _17_ MAC  --- 0 ARP 28 [0 ffffffff 1 806] [energy 0.397788 ei 0.101 es 0.000 et 0.000 er 0.002] ------- [REQUEST 1/1 0/0]
r 0.102211805 _7_ MAC  --- 0 ARP 28 [0 ffffffff 1 806] [energy 0.397788 ei 0.101 es 0.000 et 0.000 er 0.002] ------- [REQUEST 1/1 0/0]
r 0.102211805 _5_ MAC  --- 0 ARP 28 [0 ffffffff 1 806] [energy 0.397788 ei 0.101 es 0.000 et 0.000 er 0.002] ------- [REQUEST 1/1 0/0]
r 0.102211817 _3_ MAC  --- 0 ARP 28 [0 ffffffff 1 806] [energy 0.397788 ei 0.101 es 0.000 et 0.000 er 0.002] ------- [REQUEST 1/1 0/0]
r 0.102211833 _35_ MAC  --- 0 ARP 28 [0 ffffffff 1 806] [energy 0.397788 ei 0.101 es 0.000 et 0.000 er 0.002] ------- [REQUEST 1/1 0/0]
r 0.102211839 _18_ MAC  --- 0 ARP 28 [0 ffffffff 1 806] [energy 0.397788 ei 0.101 es 0.000 et 0.000 er 0.002] ------- [REQUEST 1/1 0/0]
r 0.102211860 _25_ MAC  --- 0 ARP 28 [0 ffffffff 1 806] [energy 0.397788 ei 0.101 es 0.000 et 0.000 er 0.002] ------- [REQUEST 1/1 0/0]
r 0.102211920 _8_ MAC  --- 0 ARP 28 [0 ffffffff 1 806] [energy 0.397788 ei 0.101 es 0.000 et 0.000 er 0.002] ------- [REQUEST 1/1 0/0]
r 0.102212000 _11_ MAC  --- 0 ARP 28 [0 ffffffff 1 806] [energy 0.397788 ei 0.101 es 0.000 et 0.000 er 0.002] ------- [REQUEST 1/1 0/0]
r 0.102212017 _36_ MAC  --- 0 ARP 28 [0 ffffffff 1 806] [energy 0.397788 ei 0.101 es 0.000 et 0.000 er 0.002] ------- [REQUEST 1/1 0/0]
r 0.102212079 _12_ MAC  --- 0 ARP 28 [0 ffffffff 1 806] [energy 0.397788 ei 0.101 es 0.000 et 0.000 er 0.002] ------- [REQUEST 1/1 0/0]
r 0.102212079 _10_ MAC  --- 0 ARP 28 [0 ffffffff 1 806] [energy 0.397788 ei 0.101 es 0.000 et 0.000 er 0.002] ------- [REQUEST 1/1 0/0]
r 0.102212088 _38_ MAC  --- 0 ARP 28 [0 ffffffff 1 806] [energy 0.397788 ei 0.101 es 0.000 et 0.000 er 0.002] ------- [REQUEST 1/1 0/0]
r 0.102212157 _13_ MAC  --- 0 ARP 28 [0 ffffffff 1 806] [energy 0.397788 ei 0.101 es 0.000 et 0.000 er 0.002] ------- [REQUEST 1/1 0/0]
s 0.102281699 _17_ MAC  --- 0 AODV 106 [0 ffffffff 11 800] [energy 0.397788 ei 0.101 es 0.000 et 0.000 er 0.002] ------- [17:255 -1:255 29 0] [0x2 2 1 [1 0] [0 4]] (REQUEST)
N -t 0.102282 -n 2 -e 0.396870
N -t 0.102282 -n 16 -e 0.396870
N -t 0.102282 -n 1 -e 0.396870
N -t 0.102282 -n 7 -e 0.396870
N -t 0.102282 -n 6 -e 0.396870
N -t 0.102282 -n 19 -e 0.396870
N -t 0.102282 -n 15 -e 0.396870
N -t 0.102282 -n 4 -e 0.396870
N -t 0.102282 -n 0 -e 0.396870
N -t 0.102283 -n 18 -e 0.396869
N -t 0.102283 -n 12 -e 0.396869
N -t 0.102283 -n 9 -e 0.396869
N -t 0.102283 -n 5 -e 0.396869
N -t 0.102283 -n 3 -e 0.396869
N -t 0.102283 -n 25 -e 0.396869
N -t 0.102283 -n 35 -e 0.396869
N -t 0.102283 -n 11 -e 0.396869
N -t 0.102283 -n 8 -e 0.396869
N -t 0.102283 -n 36 -e 0.396869
N -t 0.102283 -n 14 -e 0.396869
N -t 0.102283 -n 10 -e 0.396869
N -t 0.102283 -n 37 -e 0.396869
N -t 0.102283 -n 38 -e 0.396869
N -t 0.102283 -n 34 -e 0.396869
N -t 0.102283 -n 13 -e 0.396869
N -t 0.102283 -n 39 -e 0.396869
N -t 0.102283 -n 33 -e 0.396869
N -t 0.102283 -n 32 -e 0.396869
N -t 0.102283 -n 31 -e 0.396869
N -t 0.102283 -n 22 -e 0.396869
N -t 0.102283 -n 21 -e 0.396869
N -t 0.102283 -n 24 -e 0.396869
N -t 0.102283 -n 20 -e 0.396869
N -t 0.102283 -n 27 -e 0.396869
N -t 0.102283 -n 29 -e 0.396869
N -t 0.102283 -n 26 -e 0.396869
N -t 0.102283 -n 23 -e 0.396869
N -t 0.102283 -n 30 -e 0.396869
s 0.102288463 _3_ RTR  --- 0 AODV 48 [0 ffffffff 0 800] [energy 0.396869 ei 0.101 es 0.000 et 0.000 er 0.002] ------- [3:255 -1:255 29 0] [0x2 2 1 [1 0] [0 4]] (REQUEST)
s 0.102399368 _5_ RTR  --- 0 AODV 48 [0 ffffffff 0 800] [energy 0.396869 ei 0.101 es 0.000 et 0.000 er 0.002] ------- [5:255 -1:255 29 0] [0x2 2 1 [1 0] [0 4]] (REQUEST)
s 0.103030888 _11_ RTR  --- 0 AODV 48 [0 ffffffff 0 800] [energy 0.396869 ei 0.101 es 0.000 et 0.000 er 0.002] ------- [11:255 -1:255 29 0] [0x2 2 1 [1 0] [0 4]] (REQUEST)
r 0.103129849 _2_ MAC  --- 0 AODV 48 [0 ffffffff 11 800] [energy 0.396870 ei 0.101 es 0.000 et 0.000 er 0.002] ------- [17:255 -1:255 29 0] [0x2 2 1 [1 0] [0 4]] (REQUEST)
r 0.103130032 _16_ MAC  --- 0 AODV 48 [0 ffffffff 11 800] [energy 0.396870 ei 0.101 es 0.000 et 0.000 er 0.002] ------- [17:255 -1:255 29 0] [0x2 2 1 [1 0] [0 4]] (REQUEST)
r 0.103130064 _1_ MAC  --- 0 AODV 48 [0 ffffffff 11 800] [energy 0.396870 ei 0.101 es 0.000 et 0.001 er 0.002] ------- [17:255 -1:255 29 0] [0x2 2 1 [1 0] [0 4]] (REQUEST)
r 0.103130182 _7_ MAC  --- 0 AODV 48 [0 ffffffff 11 800] [energy 0.396870 ei 0.101 es 0.000 et 0.000 er 0.002] ------- [17:255 -1:255 29 0] [0x2 2 1 [1 0] [0 4]] (REQUEST)
r 0.103130286 _6_ MAC  --- 0 AODV 48 [0 ffffffff 11 800] [energy 0.396870 ei 0.101 es 0.000 et 0.000 er 0.002] ------- [17:255 -1:255 29 0] [0x2 2 1 [1 0] [0 4]] (REQUEST)
r 0.103130366 _19_ MAC  --- 0 AODV 48 [0 ffffffff 11 800] [energy 0.396870 ei 0.101 es 0.000 et 0.000 er 0.002] ------- [17:255 -1:255 29 0] [0x2 2 1 [1 0] [0 4]] (REQUEST)
r 0.103130366 _15_ MAC  --- 0 AODV 48 [0 ffffffff 11 800] [energy 0.396870 ei 0.101 es 0.000 et 0.000 er 0.002] ------- [17:255 -1:255 29 0] [0x2 2 1 [1 0] [0 4]] (REQUEST)
r 0.103130382 _4_ MAC  --- 0 AODV 48 [0 ffffffff 11 800] [energy 0.396870 ei 0.101 es 0.000 et 0.000 er 0.002] ------- [17:255 -1:255 29 0] [0x2 2 1 [1 0] [0 4]] (REQUEST)
r 0.103130382 _0_ MAC  --- 0 AODV 48 [0 ffffffff 11 800] [energy 0.396870 ei 0.101 es 0.000 et 0.001 er 0.002] ------- [17:255 -1:255 29 0] [0x2 2 1 [1 0] [0 4]] (REQUEST)
r 0.103130516 _18_ MAC  --- 0 AODV 48 [0 ffffffff 11 800] [energy 0.396869 ei 0.101 es 0.000 et 0.000 er 0.002] ------- [17:255 -1:255 29 0] [0x2 2 1 [1 0] [0 4]] (REQUEST)
r 0.103130516 _12_ MAC  --- 0 AODV 48 [0 ffffffff 11 800] [energy 0.396869 ei 0.101 es 0.000 et 0.000 er 0.002] ------- [17:255 -1:255 29 0] [0x2 2 1 [1 0] [0 4]] (REQUEST)
r 0.103130522 _9_ MAC  --- 0 AODV 48 [0 ffffffff 11 800] [energy 0.396869 ei 0.101 es 0.000 et 0.000 er 0.002] ------- [17:255 -1:255 29 0] [0x2 2 1 [1 0] [0 4]] (REQUEST)
r 0.103130522 _5_ MAC  --- 0 AODV 48 [0 ffffffff 11 800] [energy 0.396869 ei 0.101 es 0.000 et 0.000 er 0.002] ------- [17:255 -1:255 29 0] [0x2 2 1 [1 0] [0 4]] (REQUEST)
r 0.103130529 _3_ MAC  --- 0 AODV 48 [0 ffffffff 11 800] [energy 0.396869 ei 0.101 es 0.000 et 0.000 er 0.002] ------- [17:255 -1:255 29 0] [0x2 2 1 [1 0] [0 4]] (REQUEST)
r 0.103130532 _25_ MAC  --- 0 AODV 48 [0 ffffffff 11 800] [energy 0.396869 ei 0.101 es 0.000 et 0.000 er 0.002] ------- [17:255 -1:255 29 0] [0x2 2 1 [1 0] [0 4]] (REQUEST)
r 0.103154849 _2_ RTR  --- 0 AODV 48 [0 ffffffff 11 800] [energy 0.396870 ei 0.101 es 0.000 et 0.000 er 0.002] ------- [17:255 -1:255 29 0] [0x2 2 1 [1 0] [0 4]] (REQUEST)
r 0.103155032 _16_ RTR  --- 0 AODV 48 [0 ffffffff 11 800] [energy 0.396870 ei 0.101 es 0.000 et 0.000 er 0.002] ------- [17:255 -1:255 29 0] [0x2 2 1 [1 0] [0 4]] (REQUEST)
r 0.103155064 _1_ RTR  --- 0 AODV 48 [0 ffffffff 11 800] [energy 0.396870 ei 0.101 es 0.000 et 0.001 er 0.002] ------- [17:255 -1:255 29 0] [0x2 2 1 [1 0] [0 4]] (REQUEST)
r 0.103155182 _7_ RTR  --- 0 AODV 48 [0 ffffffff 11 800] [energy 0.396870 ei 0.101 es 0.000 et 0.000 er 0.002] ------- [17:255 -1:255 29 0] [0x2 2 1 [1 0] [0 4]] (REQUEST)
r 0.103155286 _6_ RTR  --- 0 AODV 48 [0 ffffffff 11 800] [energy 0.396870 ei 0.101 es 0.000 et 0.000 er 0.002] ------- [17:255 -1:255 29 0] [0x2 2 1 [1 0] [0 4]] (REQUEST)
r 0.103155366 _19_ RTR  --- 0 AODV 48 [0 ffffffff 11 800] [energy 0.396870 ei 0.101 es 0.000 et 0.000 er 0.002] ------- [17:255 -1:255 29 0] [0x2 2 1 [1 0] [0 4]] (REQUEST)
r 0.103155366 _15_ RTR  --- 0 AODV 48 [0 ffffffff 11 800] [energy 0.396870 ei 0.101 es 0.000 et 0.000 er 0.002] ------- [17:255 -1:255 29 0] [0x2 2 1 [1 0] [0 4]] (REQUEST)
r 0.103155382 _4_ RTR  --- 0 AODV 48 [0 ffffffff 11 800] [energy 0.396870 ei 0.101 es 0.000 et 0.000 er 0.002] ------- [17:255 -1:255 29 0] [0x2 2 1 [1 0] [0 4]] (REQUEST)
r 0.103155382 _0_ RTR  --- 0 AODV 48 [0 ffffffff 11 800] [energy 0.396870 ei 0.101 es 0.000 et 0.001 er 0.002] ------- [17:255 -1:255 29 0] [0x2 2 1 [1 0] [0 4]] (REQUEST)
r 0.103155516 _18_ RTR  --- 0 AODV 48 [0 ffffffff 11 800] [energy 0.396869 ei 0.101 es 0.000 et 0.000 er 0.002] ------- [17:255 -1:255 29 0] [0x2 2 1 [1 0] [0 4]] (REQUEST)
r 0.103155516 _12_ RTR  --- 0 AODV 48 [0 ffffffff 11 800] [energy 0.396869 ei 0.101 es 0.000 et 0.000 er 0.002] ------- [17:255 -1:255 29 0] [0x2 2 1 [1 0] [0 4]] (REQUEST)
r 0.103155522 _9_ RTR  --- 0 AODV 48 [0 ffffffff 11 800] [energy 0.396869 ei 0.101 es 0.000 et 0.000 er 0.002] ------- [17:255 -1:255 29 0] [0x2 2 1 [1 0] [0 4]] (REQUEST)
r 0.103155522 _5_ RTR  --- 0 AODV 48 [0 ffffffff 11 800] [energy 0.396869 ei 0.101 es 0.000 et 0.000 er 0.002] ------- [17:255 -1:255 29 0] [0x2 2 1 [1 0] [0 4]] (REQUEST)
r 0.103155529 _3_ RTR  --- 0 AODV 48 [0 ffffffff 11 800] [energy 0.396869 ei 0.101 es 0.000 et 0.000 er 0.002] ------- [17:255 -1:255 29 0] [0x2 2 1 [1 0] [0 4]] (REQUEST)
r 0.103155532 _25_ RTR  --- 0 AODV 48 [0 ffffffff 11 800] [energy 0.396869 ei 0.101 es 0.000 et 0.000 er 0.002] ------- [17:255 -1:255 29 0] [0x2 2 1 [1 0] [0 4]] (REQUEST)
s 0.103220522 _5_ MAC  --- 0 AODV 106 [0 ffffffff 5 800] [energy 0.396869 ei 0.101 es 0.000 et 0.000 er 0.002] ------- [5:255 -1:255 29 0] [0x2 2 1 [1 0] [0 4]] (REQUEST)
N -t 0.103221 -n 8 -e 0.395931
N -t 0.103221 -n 36 -e 0.395931
N -t 0.103221 -n 38 -e 0.395931
N -t 0.103221 -n 6 -e 0.395931
N -t 0.103221 -n 0 -e 0.395931
N -t 0.103221 -n 10 -e 0.395931
N -t 0.103221 -n 3 -e 0.395931
N -t 0.103221 -n 13 -e 0.395931
N -t 0.103221 -n 35 -e 0.395931
N -t 0.103221 -n 33 -e 0.395931
N -t 0.103221 -n 1 -e 0.395931
N -t 0.103221 -n 11 -e 0.395931
N -t 0.103221 -n 15 -e 0.395931
N -t 0.103221 -n 18 -e 0.395931
N -t 0.103221 -n 25 -e 0.395931
N -t 0.103221 -n 16 -e 0.395931
N -t 0.103221 -n 7 -e 0.395931
N -t 0.103221 -n 39 -e 0.395931
N -t 0.103221 -n 2 -e 0.395931
N -t 0.103221 -n 12 -e 0.395931
N -t 0.103221 -n 17 -e 0.395931
N -t 0.103221 -n 37 -e 0.395931
N -t 0.103221 -n 31 -e 0.395931
N -t 0.103222 -n 20 -e 0.395930
N -t 0.103222 -n 32 -e 0.395930
N -t 0.103222 -n 26 -e 0.395930
N -t 0.103222 -n 23 -e 0.395930
N -t 0.103222 -n 21 -e 0.395930
N -t 0.103222 -n 30 -e 0.395930
N -t 0.103222 -n 28 -e 0.395930
N -t 0.103222 -n 22 -e 0.395930
N -t 0.103222 -n 29 -e 0.395930
N -t 0.103222 -n 9 -e 0.395930
N -t 0.103222 -n 27 -e 0.395930
N -t 0.103222 -n 4 -e 0.395930
N -t 0.103222 -n 14 -e 0.395930
N -t 0.103222 -n 34 -e 0.395930
N -t 0.103222 -n 19 -e 0.395930
N -t 0.103222 -n 24 -e 0.395930
s 0.103738303 _16_ RTR  --- 0 AODV 48 [0 ffffffff 0 800] [energy 0.395931 ei 0.101 es 0.000 et 0.000 er 0.003] ------- [16:255 -1:255 29 0] [0x2 2 1 [1 0] [0 4]] (REQUEST)
s 0.103786908 _2_ RTR  --- 0 AODV 48 [0 ffffffff 0 800] [energy 0.395931 ei 0.101 es 0.000 et 0.000 er 0.003] ------- [2:255 -1:255 29 0] [0x2 2 1 [1 0] [0 4]] (REQUEST)
s 0.104037524 _9_ RTR  --- 0 AODV 48 [0 ffffffff 11 800] [energy 0.395930 ei 0.101 es 0.000 et 0.000 er 0.003] ------- [9:255 -1:255 28 0] [0x2 3 1 [1 0] [0 4]] (REQUEST)
r 0.104068672 _8_ MAC  --- 0 AODV 48 [0 ffffffff 5 800] [energy 0.395931 ei 0.101 es 0.000 et 0.000 er 0.003] ------- [5:255 -1:255 29 0] [0x2 2 1 [1 0] [0 4]] (REQUEST)
r 0.104068736 _36_ MAC  --- 0 AODV 48 [0 ffffffff 5 800] [energy 0.395931 ei 0.101 es 0.000 et 0.000 er 0.003] ------- [5:255 -1:255 29 0] [0x2 2 1 [1 0] [0 4]] (REQUEST)
r 0.104068811 _38_ MAC  --- 0 AODV 48 [0 ffffffff 5 800] [energy 0.395931 ei 0.101 es 0.000 et 0.000 er 0.003] ------- [5:255 -1:255 29 0] [0x2 2 1 [1 0] [0 4]] (REQUEST)
r 0.104068856 _6_ MAC  --- 0 AODV 48 [0 ffffffff 5 800] [energy 0.395931 ei 0.101 es 0.000 et 0.000 er 0.003] ------- [5:255 -1:255 29 0] [0x2 2 1 [1 0] [0 4]] (REQUEST)
r 0.104068856 _0_ MAC  --- 0 AODV 48 [0 ffffffff 5 800] [energy 0.395931 ei 0.101 es 0.000 et 0.001 er 0.002] ------- [5:255 -1:255 29 0] [0x2 2 1 [1 0] [0 4]] (REQUEST)
r 0.104068856 _10_ MAC  --- 0 AODV 48 [0 ffffffff 5 800] [energy 0.395931 ei 0.101 es 0.000 et 0.000 er 0.003] ------- [5:255 -1:255 29 0] [0x2 2 1 [1 0] [0 4]] (REQUEST)
r 0.104068888 _3_ MAC  --- 0 AODV 48 [0 ffffffff 5 800] [energy 0.395931 ei 0.101 es 0.000 et 0.000 er 0.003] ------- [5:255 -1:255 29 0] [0x2 2 1 [1 0] [0 4]] (REQUEST)
r 0.104068888 _13_ MAC  --- 0 AODV 48 [0 ffffffff 5 800] [energy 0.395931 ei 0.101 es 0.000 et 0.000 er 0.003] ------- [5:255 -1:255 29 0] [0x2 2 1 [1 0] [0 4]] (REQUEST)
r 0.104068895 _35_ MAC  --- 0 AODV 48 [0 ffffffff 5 800] [energy 0.395931 ei 0.101 es 0.000 et 0.000 er 0.003] ------- [5:255 -1:255 29 0] [0x2 2 1 [1 0] [0 4]] (REQUEST)
r 0.104068965 _33_ MAC  --- 0 AODV 48 [0 ffffffff 5 800] [energy 0.395931 ei 0.101 es 0.000 et 0.000 er 0.003] ------- [5:255 -1:255 29 0] [0x2 2 1 [1 0] [0 4]] (REQUEST)
r 0.104068994 _1_ MAC  --- 0 AODV 48 [0 ffffffff 5 800] [energy 0.395931 ei 0.101 es 0.000 et 0.001 er 0.003] ------- [5:255 -1:255 29 0] [0x2 2 1 [1 0] [0 4]] (REQUEST)
r 0.104068994 _11_ MAC  --- 0 AODV 48 [0 ffffffff 5 800] [energy 0.395931 ei 0.101 es 0.000 et 0.000 er 0.003] ------- [5:255 -1:255 29 0] [0x2 2 1 [1 0] [0 4]] (REQUEST)
r 0.104069006 _15_ MAC  --- 0 AODV 48 [0 ffffffff 5 800] [energy 0.395931 ei 0.101 es 0.000 et 0.000 er 0.003] ------- [5:255 -1:255 29 0] [0x2 2 1 [1 0] [0 4]] (REQUEST)
r 0.104069028 _18_ MAC  --- 0 AODV 48 [0 ffffffff 5 800] [energy 0.395931 ei 0.101 es 0.000 et 0.000 er 0.003] ------- [5:255 -1:255 29 0] [0x2 2 1 [1 0] [0 4]] (REQUEST)
r 0.104069049 _25_ MAC  --- 0 AODV 48 [0 ffffffff 5 800] [energy 0.395931 ei 0.101 es 0.000 et 0.000 er 0.003] ------- [5:255 -1:255 29 0] [0x2 2 1 [1 0] [0 4]] (REQUEST)
r 0.104069109 _16_ MAC  --- 0 AODV 48 [0 ffffffff 5 800] [energy 0.395931 ei 0.101 es 0.000 et 0.000 er 0.003] ------- [5:255 -1:255 29 0] [0x2 2 1 [1 0] [0 4]] (REQUEST)
r 0.104069189 _7_ MAC  --- 0 AODV 48 [0 ffffffff 5 800] [energy 0.395931 ei 0.101 es 0.000 et 0.000 er 0.003] ------- [5:255 -1:255 29 0] [0x2 2 1 [1 0] [0 4]] (REQUEST)
r 0.104069265 _39_ MAC  --- 0 AODV 48 [0 ffffffff 5 800] [energy 0.395931 ei 0.101 es 0.000 et 0.000 er 0.003] ------- [5:255 -1:255 29 0] [0x2 2 1 [1 0] [0 4]] (REQUEST)
r 0.104069268 _2_ MAC  --- 0 AODV 48 [0 ffffffff 5 800] [energy 0.395931 ei 0.101 es 0.000 et 0.000 er 0.003] ------- [5:255 -1:255 29 0] [0x2 2 1 [1 0] [0 4]] (REQUEST)
r 0.104069268 _12_ MAC  --- 0 AODV 48 [0 ffffffff 5 800] [energy 0.395931 ei 0.101 es 0.000 et 0.000 er 0.003] ------- [5:255 -1:255 29 0] [0x2 2 1 [1 0] [0 4]] (REQUEST)
r 0.104069346 _17_ MAC  --- 0 AODV 48 [0 ffffffff 5 800] [energy 0.395931 ei 0.101 es 0.000 et 0.001 er 0.002] ------- [5:255 -1:255 29 0] [0x2 2 1 [1 0] [0 4]] (REQUEST)
r 0.104093672 _8_ RTR  --- 0 AODV 48 [0 ffffffff 5 800] [energy 0.395931 ei 0.101 es 0.000 et 0.000 er 0.003] ------- [5:255 -1:255 29 0] [0x2 2 1 [1 0] [0 4]] (REQUEST)
r 0.104093736 _36_ RTR  --- 0 AODV 48 [0 ffffffff 5 800] [energy 0.395931 ei 0.101 es 0.000 et 0.000 er 0.003] ------- [5:255 -1:255 29 0] [0x2 2 1 [1 0] [0 4]] (REQUEST)
r 0.104093811 _38_ RTR  --- 0 AODV 48 [0 ffffffff 5 800] [energy 0.395931 ei 0.101 es 0.000 et 0.000 er 0.003] ------- [5:255 -1:255 29 0] [0x2 2 1 [1 0] [0 4]] (REQUEST)
r 0.104093856 _6_ RTR  --- 0 AODV 48 [0 ffffffff 5 800] [energy 0.395931 ei 0.101 es 0.000 et 0.000 er 0.003] ------- [5:255 -1:255 29 0] [0x2 2 1 [1 0] [0 4]] (REQUEST)
r 0.104093856 _0_ RTR  --- 0 AODV 48 [0 ffffffff 5 800] [energy 0.395931 ei 0.101 es 0.000 et 0.001 er 0.002] ------- [5:255 -1:255 29 0] [0x2 2 1 [1 0] [0 4]] (REQUEST)
r 0.104093856 _10_ RTR  --- 0 AODV 48 [0 ffffffff 5 800] [energy 0.395931 ei 0.101 es 0.000 et 0.000 er 0.003] ------- [5:255 -1:255 29 0] [0x2 2 1 [1 0] [0 4]] (REQUEST)
r 0.104093888 _3_ RTR  --- 0 AODV 48 [0 ffffffff 5 800] [energy 0.395931 ei 0.101 es 0.000 et 0.000 er 0.003] ------- [5:255 -1:255 29 0] [0x2 2 1 [1 0] [0 4]] (REQUEST)
r 0.104093888 _13_ RTR  --- 0 AODV 48 [0 ffffffff 5 800] [energy 0.395931 ei 0.101 es 0.000 et 0.000 er 0.003] ------- [5:255 -1:255 29 0] [0x2 2 1 [1 0] [0 4]] (REQUEST)
r 0.104093895 _35_ RTR  --- 0 AODV 48 [0 ffffffff 5 800] [energy 0.395931 ei 0.101 es 0.000 et 0.000 er 0.003] ------- [5:255 -1:255 29 0] [0x2 2 1 [1 0] [0 4]] (REQUEST)
r 0.104093965 _33_ RTR  --- 0 AODV 48 [0 ffffffff 5 800] [energy 0.395931 ei 0.101 es 0.000 et 0.000 er 0.003] ------- [5:255 -1:255 29 0] [0x2 2 1 [1 0] [0 4]] (REQUEST)
r 0.104093994 _1_ RTR  --- 0 AODV 48 [0 ffffffff 5 800] [energy 0.395931 ei 0.101 es 0.000 et 0.001 er 0.003] ------- [5:255 -1:255 29 0] [0x2 2 1 [1 0] [0 4]] (REQUEST)
r 0.104093994 _11_ RTR  --- 0 AODV 48 [0 ffffffff 5 800] [energy 0.395931 ei 0.101 es 0.000 et 0.000 er 0.003] ------- [5:255 -1:255 29 0] [0x2 2 1 [1 0] [0 4]] (REQUEST)