V -t * -v 1.0a5 -a 0
A -t * -n 1 -p 0 -o 0xffffffff -c 31 -a 1
A -t * -h 1 -m 2147483647 -s 0
+ -t 0.009831431 -s 0 -d -1 -p message -e 90 -c 2 -a 0 -i 0 -k MAC 
- -t 0.009831431 -s 0 -d -1 -p message -e 90 -c 2 -a 0 -i 0 -k MAC
h -t 0.009831431 -s 0 -d -1 -p message -e 90 -c 2 -a 0 -i 0 -k MAC
r -t 0.010552231 -s 4 -d -1 -p message -e 32 -c 2 -a 0 -i 0 -k MAC
r -t 0.010552231 -s 1 -d -1 -p message -e 32 -c 2 -a 0 -i 0 -k MAC
+ -t 0.036774607 -s 2 -d -1 -p message -e 90 -c 2 -a 0 -i 1 -k MAC 
- -t 0.036774607 -s 2 -d -1 -p message -e 90 -c 2 -a 0 -i 1 -k MAC
h -t 0.036774607 -s 2 -d -1 -p message -e 90 -c 2 -a 0 -i 1 -k MAC
r -t 0.037495407 -s 1 -d -1 -p message -e 32 -c 2 -a 0 -i 1 -k MAC
r -t 0.037495407 -s 6 -d -1 -p message -e 32 -c 2 -a 0 -i 1 -k MAC
r -t 0.037495407 -s 3 -d -1 -p message -e 32 -c 2 -a 0 -i 1 -k MAC
+ -t 0.091030603 -s 13 -d -1 -p message -e 90 -c 2 -a 0 -i 2 -k MAC 
- -t 0.091030603 -s 13 -d -1 -p message -e 90 -c 2 -a 0 -i 2 -k MAC
h -t 0.091030603 -s 13 -d -1 -p message -e 90 -c 2 -a 0 -i 2 -k MAC
r -t 0.091751403 -s 9 -d -1 -p message -e 32 -c 2 -a 0 -i 2 -k MAC
r -t 0.091751403 -s 12 -d -1 -p message -e 32 -c 2 -a 0 -i 2 -k MAC
r -t 0.091751403 -s 14 -d -1 -p message -e 32 -c 2 -a 0 -i 2 -k MAC
+ -t 0.185078595 -s 3 -d -1 -p message -e 90 -c 2 -a 0 -i 3 -k MAC 
- -t 0.185078595 -s 3 -d -1 -p message -e 90 -c 2 -a 0 -i 3 -k MAC
h -t 0.185078595 -s 3 -d -1 -p message -e 90 -c 2 -a 0 -i 3 -k MAC
r -t 0.185799395 -s 2 -d -1 -p message -e 32 -c 2 -a 0 -i 3 -k MAC
r -t 0.185799395 -s 7 -d -1 -p message -e 32 -c 2 -a 0 -i 3 -k MAC
+ -t 0.234604987 -s 15 -d -1 -p message -e 90 -c 2 -a 0 -i 4 -k MAC 
- -t 0.234604987 -s 15 -d -1 -p message -e 90 -c 2 -a 0 -i 4 -k MAC
h -t 0.234604987 -s 15 -d -1 -p message -e 90 -c 2 -a 0 -i 4 -k MAC
r -t 0.235325787 -s 11 -d -1 -p message -e 32 -c 2 -a 0 -i 4 -k MAC
r -t 0.235325787 -s 14 -d -1 -p message -e 32 -c 2 -a 0 -i 4 -k MAC
+ -t 0.329557798 -s 12 -d -1 -p message -e 90 -c 2 -a 0 -i 5 -k MAC 
- -t 0.329557798 -s 12 -d -1 -p message -e 90 -c 2 -a 0 -i 5 -k MAC
h -t 0.329557798 -s 12 -d -1 -p message -e 90 -c 2 -a 0 -i 5 -k MAC
r -t 0.330278598 -s 8 -d -1 -p message -e 32 -c 2 -a 0 -i 5 -k MAC
r -t 0.330278598 -s 13 -d -1 -p message -e 32 -c 2 -a 0 -i 5 -k MAC
+ -t 0.479321153 -s 8 -d -1 -p message -e 90 -c 2 -a 0 -i 6 -k MAC 
- -t 0.479321153 -s 8 -d -1 -p message -e 90 -c 2 -a 0 -i 6 -k MAC
h -t 0.479321153 -s 8 -d -1 -p message -e 90 -c 2 -a 0 -i 6 -k MAC
r -t 0.480041953 -s 4 -d -1 -p message -e 32 -c 2 -a 0 -i 6 -k MAC
r -t 0.480041953 -s 12 -d -1 -p message -e 32 -c 2 -a 0 -i 6 -k MAC
r -t 0.480041953 -s 9 -d -1 -p message -e 32 -c 2 -a 0 -i 6 -k MAC
+ -t 0.618841199 -s 10 -d -1 -p message -e 90 -c 2 -a 0 -i 7 -k MAC 
- -t 0.618841199 -s 10 -d -1 -p message -e 90 -c 2 -a 0 -i 7 -k MAC
h -t 0.618841199 -s 10 -d -1 -p message -e 90 -c 2 -a 0 -i 7 -k MAC
r -t 0.619561999 -s 6 -d -1 -p message -e 32 -c 2 -a 0 -i 7 -k MAC
r -t 0.619561999 -s 9 -d -1 -p message -e 32 -c 2 -a 0 -i 7 -k MAC
r -t 0.619561999 -s 14 -d -1 -p message -e 32 -c 2 -a 0 -i 7 -k MAC
r -t 0.619561999 -s 11 -d -1 -p message -e 32 -c 2 -a 0 -i 7 -k MAC
+ -t 0.633164782 -s 6 -d -1 -p message -e 90 -c 2 -a 0 -i 8 -k MAC 
- -t 0.633164782 -s 6 -d -1 -p message -e 90 -c 2 -a 0 -i 8 -k MAC
h -t 0.633164782 -s 6 -d -1 -p message -e 90 -c 2 -a 0 -i 8 -k MAC
r -t 0.633885582 -s 2 -d -1 -p message -e 32 -c 2 -a 0 -i 8 -k MAC
r -t 0.633885582 -s 5 -d -1 -p message -e 32 -c 2 -a 0 -i 8 -k MAC
r -t 0.633885582 -s 10 -d -1 -p message -e 32 -c 2 -a 0 -i 8 -k MAC
r -t 0.633885582 -s 7 -d -1 -p message -e 32 -c 2 -a 0 -i 8 -k MAC
+ -t 0.891348321 -s 4 -d -1 -p message -e 90 -c 2 -a 0 -i 9 -k MAC 
- -t 0.891348321 -s 4 -d -1 -p message -e 90 -c 2 -a 0 -i 9 -k MAC
h -t 0.891348321 -s 4 -d -1 -p message -e 90 -c 2 -a 0 -i 9 -k MAC
r -t 0.892069121 -s 0 -d -1 -p message -e 32 -c 2 -a 0 -i 9 -k MAC
r -t 0.892069121 -s 8 -d -1 -p message -e 32 -c 2 -a 0 -i 9 -k MAC
r -t 0.892069121 -s 5 -d -1 -p message -e 32 -c 2 -a 0 -i 9 -k MAC
+ -t 1.112112007 -s 1 -d -1 -p message -e 90 -c 2 -a 0 -i 10 -k MAC 
- -t 1.112112007 -s 1 -d -1 -p message -e 90 -c 2 -a 0 -i 10 -k MAC
h -t 1.112112007 -s 1 -d -1 -p message -e 90 -c 2 -a 0 -i 10 -k MAC
r -t 1.112832807 -s 0 -d -1 -p message -e 32 -c 2 -a 0 -i 10 -k MAC
r -t 1.112832807 -s 5 -d -1 -p message -e 32 -c 2 -a 0 -i 10 -k MAC
r -t 1.112832807 -s 2 -d -1 -p message -e 32 -c 2 -a 0 -i 10 -k MAC
+ -t 1.282517659 -s 14 -d -1 -p message -e 90 -c 2 -a 0 -i 12 -k MAC 
- -t 1.282517659 -s 14 -d -1 -p message -e 90 -c 2 -a 0 -i 12 -k MAC
h -t 1.282517659 -s 14 -d -1 -p message -e 90 -c 2 -a 0 -i 12 -k MAC
r -t 1.283238459 -s 10 -d -1 -p message -e 32 -c 2 -a 0 -i 12 -k MAC
r -t 1.283238459 -s 13 -d -1 -p message -e 32 -c 2 -a 0 -i 12 -k MAC
r -t 1.283238459 -s 15 -d -1 -p message -e 32 -c 2 -a 0 -i 12 -k MAC
+ -t 1.287573448 -s 9 -d -1 -p message -e 90 -c 2 -a 0 -i 11 -k MAC 
- -t 1.287573448 -s 9 -d -1 -p message -e 90 -c 2 -a 0 -i 11 -k MAC
h -t 1.287573448 -s 9 -d -1 -p message -e 90 -c 2 -a 0 -i 11 -k MAC
r -t 1.288294248 -s 5 -d -1 -p message -e 32 -c 2 -a 0 -i 11 -k MAC
r -t 1.288294248 -s 8 -d -1 -p message -e 32 -c 2 -a 0 -i 11 -k MAC
r -t 1.288294248 -s 13 -d -1 -p message -e 32 -c 2 -a 0 -i 11 -k MAC
r -t 1.288294248 -s 10 -d -1 -p message -e 32 -c 2 -a 0 -i 11 -k MAC
+ -t 1.599087241 -s 5 -d -1 -p message -e 90 -c 2 -a 0 -i 13 -k MAC 
- -t 1.599087241 -s 5 -d -1 -p message -e 90 -c 2 -a 0 -i 13 -k MAC
h -t 1.599087241 -s 5 -d -1 -p message -e 90 -c 2 -a 0 -i 13 -k MAC
r -t 1.599808041 -s 1 -d -1 -p message -e 32 -c 2 -a 0 -i 13 -k MAC
r -t 1.599808041 -s 4 -d -1 -p message -e 32 -c 2 -a 0 -i 13 -k MAC
r -t 1.599808041 -s 9 -d -1 -p message -e 32 -c 2 -a 0 -i 13 -k MAC
r -t 1.599808041 -s 6 -d -1 -p message -e 32 -c 2 -a 0 -i 13 -k MAC
+ -t 1.637439303 -s 7 -d -1 -p message -e 90 -c 2 -a 0 -i 14 -k MAC 
- -t 1.637439303 -s 7 -d -1 -p message -e 90 -c 2 -a 0 -i 14 -k MAC
h -t 1.637439303 -s 7 -d -1 -p message -e 90 -c 2 -a 0 -i 14 -k MAC
r -t 1.638160103 -s 3 -d -1 -p message -e 32 -c 2 -a 0 -i 14 -k MAC
r -t 1.638160103 -s 6 -d -1 -p message -e 32 -c 2 -a 0 -i 14 -k MAC
r -t 1.638160103 -s 11 -d -1 -p message -e 32 -c 2 -a 0 -i 14 -k MAC
+ -t 1.680122492 -s 11 -d -1 -p message -e 90 -c 2 -a 0 -i 15 -k MAC 
- -t 1.680122492 -s 11 -d -1 -p message -e 90 -c 2 -a 0 -i 15 -k MAC
h -t 1.680122492 -s 11 -d -1 -p message -e 90 -c 2 -a 0 -i 15 -k MAC
r -t 1.680843292 -s 7 -d -1 -p message -e 32 -c 2 -a 0 -i 15 -k MAC
r -t 1.680843292 -s 10 -d -1 -p message -e 32 -c 2 -a 0 -i 15 -k MAC
r -t 1.680843292 -s 15 -d -1 -p message -e 32 -c 2 -a 0 -i 15 -k MAC
+ -t 10.457800000 -s 7 -d -1 -p cbr -e 500 -c 2 -a 0 -i 16 -k AGT 
- -t 10.457800000 -s 7 -d -1 -p cbr -e 500 -c 2 -a 0 -i 16 -k AGT
h -t 10.457800000 -s 7 -d -1 -p cbr -e 500 -c 2 -a 0 -i 16 -k AGT
+ -t 10.957800000 -s 7 -d -1 -p cbr -e 500 -c 2 -a 0 -i 17 -k AGT 
- -t 10.957800000 -s 7 -d -1 -p cbr -e 500 -c 2 -a 0 -i 17 -k AGT
h -t 10.957800000 -s 7 -d -1 -p cbr -e 500 -c 2 -a 0 -i 17 -k AGT
+ -t 11.023400000 -s 0 -d -1 -p cbr -e 500 -c 2 -a 0 -i 18 -k AGT 
- -t 11.023400000 -s 0 -d -1 -p cbr -e 500 -c 2 -a 0 -i 18 -k AGT
h -t 11.023400000 -s 0 -d -1 -p cbr -e 500 -c 2 -a 0 -i 18 -k AGT
+ -t 11.457800000 -s 7 -d -1 -p cbr -e 500 -c 2 -a 0 -i 19 -k AGT 
- -t 11.457800000 -s 7 -d -1 -p cbr -e 500 -c 2 -a 0 -i 19 -k AGT
h -t 11.457800000 -s 7 -d -1 -p cbr -e 500 -c 2 -a 0 -i 19 -k AGT
+ -t 11.523400000 -s 0 -d -1 -p cbr -e 500 -c 2 -a 0 -i 20 -k AGT 
- -t 11.523400000 -s 0 -d -1 -p cbr -e 500 -c 2 -a 0 -i 20 -k AGT
h -t 11.523400000 -s 0 -d -1 -p cbr -e 500 -c 2 -a 0 -i 20 -k AGT
+ -t 11.957800000 -s 7 -d -1 -p cbr -e 500 -c 2 -a 0 -i 21 -k AGT 
- -t 11.957800000 -s 7 -d -1 -p cbr -e 500 -c 2 -a 0 -i 21 -k AGT
h -t 11.957800000 -s 7 -d -1 -p cbr -e 500 -c 2 -a 0 -i 21 -k AGT
+ -t 12.014812817 -s 1 -d -1 -p message -e 90 -c 2 -a 0 -i 23 -k MAC 
- -t 12.014812817 -s 1 -d -1 -p message -e 90 -c 2 -a 0 -i 23 -k MAC
h -t 12.014812817 -s 1 -d -1 -p message -e 90 -c 2 -a 0 -i 23 -k MAC
r -t 12.015533617 -s 0 -d -1 -p message -e 32 -c 2 -a 0 -i 23 -k MAC
r -t 12.015533617 -s 5 -d -1 -p message -e 32 -c 2 -a 0 -i 23 -k MAC
r -t 12.015533617 -s 2 -d -1 -p message -e 32 -c 2 -a 0 -i 23 -k MAC
+ -t 12.019212350 -s 4 -d -1 -p message -e 90 -c 2 -a 0 -i 22 -k MAC 
- -t 12.019212350 -s 4 -d -1 -p message -e 90 -c 2 -a 0 -i 22 -k MAC
h -t 12.019212350 -s 4 -d -1 -p message -e 90 -c 2 -a 0 -i 22 -k MAC
r -t 12.019933150 -s 0 -d -1 -p message -e 32 -c 2 -a 0 -i 22 -k MAC
r -t 12.019933150 -s 8 -d -1 -p message -e 32 -c 2 -a 0 -i 22 -k MAC
r -t 12.019933150 -s 5 -d -1 -p message -e 32 -c 2 -a 0 -i 22 -k MAC
+ -t 12.023400000 -s 0 -d -1 -p cbr -e 500 -c 2 -a 0 -i 24 -k AGT 
- -t 12.023400000 -s 0 -d -1 -p cbr -e 500 -c 2 -a 0 -i 24 -k AGT
h -t 12.023400000 -s 0 -d -1 -p cbr -e 500 -c 2 -a 0 -i 24 -k AGT
+ -t 12.039435291 -s 6 -d -1 -p message -e 90 -c 2 -a 0 -i 25 -k MAC 
- -t 12.039435291 -s 6 -d -1 -p message -e 90 -c 2 -a 0 -i 25 -k MAC
h -t 12.039435291 -s 6 -d -1 -p message -e 90 -c 2 -a 0 -i 25 -k MAC
r -t 12.040156091 -s 2 -d -1 -p message -e 32 -c 2 -a 0 -i 25 -k MAC
r -t 12.040156091 -s 5 -d -1 -p message -e 32 -c 2 -a 0 -i 25 -k MAC
r -t 12.040156091 -s 10 -d -1 -p message -e 32 -c 2 -a 0 -i 25 -k MAC
r -t 12.040156091 -s 7 -d -1 -p message -e 32 -c 2 -a 0 -i 25 -k MAC
+ -t 12.042239182 -s 3 -d -1 -p message -e 90 -c 2 -a 0 -i 26 -k MAC 
- -t 12.042239182 -s 3 -d -1 -p message -e 90 -c 2 -a 0 -i 26 -k MAC
h -t 12.042239182 -s 3 -d -1 -p message -e 90 -c 2 -a 0 -i 26 -k MAC
r -t 12.042959982 -s 2 -d -1 -p message -e 32 -c 2 -a 0 -i 26 -k MAC
r -t 12.042959982 -s 7 -d -1 -p message -e 32 -c 2 -a 0 -i 26 -k MAC
+ -t 12.095573548 -s 9 -d -1 -p message -e 90 -c 2 -a 0 -i 27 -k MAC 
- -t 12.095573548 -s 9 -d -1 -p message -e 90 -c 2 -a 0 -i 27 -k MAC
h -t 12.095573548 -s 9 -d -1 -p message -e 90 -c 2 -a 0 -i 27 -k MAC
r -t 12.096294348 -s 5 -d -1 -p message -e 32 -c 2 -a 0 -i 27 -k MAC
r -t 12.096294348 -s 8 -d -1 -p message -e 32 -c 2 -a 0 -i 27 -k MAC
r -t 12.096294348 -s 13 -d -1 -p message -e 32 -c 2 -a 0 -i 27 -k MAC
r -t 12.096294348 -s 10 -d -1 -p message -e 32 -c 2 -a 0 -i 27 -k MAC
+ -t 12.098968301 -s 12 -d -1 -p message -e 90 -c 2 -a 0 -i 28 -k MAC 
- -t 12.098968301 -s 12 -d -1 -p message -e 90 -c 2 -a 0 -i 28 -k MAC
h -t 12.098968301 -s 12 -d -1 -p message -e 90 -c 2 -a 0 -i 28 -k MAC
r -t 12.099689101 -s 8 -d -1 -p message -e 32 -c 2 -a 0 -i 28 -k MAC
r -t 12.099689101 -s 13 -d -1 -p message -e 32 -c 2 -a 0 -i 28 -k MAC
+ -t 12.100970795 -s 14 -d -1 -p message -e 90 -c 2 -a 0 -i 29 -k MAC 
- -t 12.100970795 -s 14 -d -1 -p message -e 90 -c 2 -a 0 -i 29 -k MAC
h -t 12.100970795 -s 14 -d -1 -p message -e 90 -c 2 -a 0 -i 29 -k MAC
r -t 12.101691595 -s 10 -d -1 -p message -e 32 -c 2 -a 0 -i 29 -k MAC
r -t 12.101691595 -s 13 -d -1 -p message -e 32 -c 2 -a 0 -i 29 -k MAC
r -t 12.101691595 -s 15 -d -1 -p message -e 32 -c 2 -a 0 -i 29 -k MAC
+ -t 12.194377713 -s 7 -d -1 -p message -e 90 -c 2 -a 0 -i 31 -k MAC 
- -t 12.194377713 -s 7 -d -1 -p message -e 90 -c 2 -a 0 -i 31 -k MAC
h -t 12.194377713 -s 7 -d -1 -p message -e 90 -c 2 -a 0 -i 31 -k MAC
r -t 12.195098513 -s 3 -d -1 -p message -e 32 -c 2 -a 0 -i 31 -k MAC
r -t 12.195098513 -s 6 -d -1 -p message -e 32 -c 2 -a 0 -i 31 -k MAC
r -t 12.195098513 -s 11 -d -1 -p message -e 32 -c 2 -a 0 -i 31 -k MAC
+ -t 12.196012844 -s 2 -d -1 -p message -e 90 -c 2 -a 0 -i 30 -k MAC 
- -t 12.196012844 -s 2 -d -1 -p message -e 90 -c 2 -a 0 -i 30 -k MAC
h -t 12.196012844 -s 2 -d -1 -p message -e 90 -c 2 -a 0 -i 30 -k MAC
r -t 12.196733644 -s 1 -d -1 -p message -e 32 -c 2 -a 0 -i 30 -k MAC
r -t 12.196733644 -s 6 -d -1 -p message -e 32 -c 2 -a 0 -i 30 -k MAC
r -t 12.196733644 -s 3 -d -1 -p message -e 32 -c 2 -a 0 -i 30 -k MAC
+ -t 12.243322070 -s 11 -d -1 -p message -e 90 -c 2 -a 0 -i 32 -k MAC 
- -t 12.243322070 -s 11 -d -1 -p message -e 90 -c 2 -a 0 -i 32 -k MAC
h -t 12.243322070 -s 11 -d -1 -p message -e 90 -c 2 -a 0 -i 32 -k MAC
r -t 12.244042870 -s 7 -d -1 -p message -e 32 -c 2 -a 0 -i 32 -k MAC
r -t 12.244042870 -s 10 -d -1 -p message -e 32 -c 2 -a 0 -i 32 -k MAC
r -t 12.244042870 -s 15 -d -1 -p message -e 32 -c 2 -a 0 -i 32 -k MAC
+ -t 12.245600000 -s 7 -d -1 -p cbr -e 500 -c 2 -a 0 -i 34 -k AGT 
- -t 12.245600000 -s 7 -d -1 -p cbr -e 500 -c 2 -a 0 -i 34 -k AGT
h -t 12.245600000 -s 7 -d -1 -p cbr -e 500 -c 2 -a 0 -i 34 -k AGT
+ -t 12.246175000 -s 7 -d -1 -p ARP -e 86 -c 2 -a 0 -i 0 -k MAC 
- -t 12.246175000 -s 7 -d -1 -p ARP -e 86 -c 2 -a 0 -i 0 -k MAC
h -t 12.246175000 -s 7 -d -1 -p ARP -e 86 -c 2 -a 0 -i 0 -k MAC
r -t 12.246863800 -s 3 -d -1 -p ARP -e 28 -c 2 -a 0 -i 0 -k MAC
r -t 12.246863800 -s 6 -d -1 -p ARP -e 28 -c 2 -a 0 -i 0 -k MAC
r -t 12.246863800 -s 11 -d -1 -p ARP -e 28 -c 2 -a 0 -i 0 -k MAC
+ -t 12.246938800 -s 11 -d -1 -p RTS -e 44 -c 2 -a 0 -i 0 -k MAC 
- -t 12.246938800 -s 11 -d -1 -p RTS -e 44 -c 2 -a 0 -i 0 -k MAC
h -t 12.246938800 -s 11 -d -1 -p RTS -e 44 -c 2 -a 0 -i 0 -k MAC
r -t 12.247291600 -s 7 -d -1 -p RTS -e 44 -c 2 -a 0 -i 0 -k MAC
+ -t 12.247301600 -s 7 -d -1 -p CTS -e 38 -c 2 -a 0 -i 0 -k MAC 
- -t 12.247301600 -s 7 -d -1 -p CTS -e 38 -c 2 -a 0 -i 0 -k MAC
h -t 12.247301600 -s 7 -d -1 -p CTS -e 38 -c 2 -a 0 -i 0 -k MAC
r -t 12.247606400 -s 11 -d -1 -p CTS -e 38 -c 2 -a 0 -i 0 -k MAC
+ -t 12.247616400 -s 11 -d -1 -p ARP -e 86 -c 2 -a 0 -i 0 -k MAC 
- -t 12.247616400 -s 11 -d -1 -p ARP -e 86 -c 2 -a 0 -i 0 -k MAC
h -t 12.247616400 -s 11 -d -1 -p ARP -e 86 -c 2 -a 0 -i 0 -k MAC
r -t 12.248305200 -s 7 -d -1 -p ARP -e 28 -c 2 -a 0 -i 0 -k MAC
+ -t 12.248315200 -s 7 -d -1 -p ACK -e 38 -c 2 -a 0 -i 0 -k MAC 
- -t 12.248315200 -s 7 -d -1 -p ACK -e 38 -c 2 -a 0 -i 0 -k MAC
h -t 12.248315200 -s 7 -d -1 -p ACK -e 38 -c 2 -a 0 -i 0 -k MAC
r -t 12.248620000 -s 11 -d -1 -p ACK -e 38 -c 2 -a 0 -i 0 -k MAC
+ -t 12.249000000 -s 3 -d -1 -p message -e 102 -c 2 -a 0 -i 33 -k MAC 
- -t 12.249000000 -s 3 -d -1 -p message -e 102 -c 2 -a 0 -i 33 -k MAC
h -t 12.249000000 -s 3 -d -1 -p message -e 102 -c 2 -a 0 -i 33 -k MAC
r -t 12.249816800 -s 2 -d -1 -p message -e 44 -c 2 -a 0 -i 33 -k MAC
r -t 12.249816800 -s 7 -d -1 -p message -e 44 -c 2 -a 0 -i 33 -k MAC
+ -t 12.249946800 -s 7 -d -1 -p RTS -e 44 -c 2 -a 0 -i 0 -k MAC 
- -t 12.249946800 -s 7 -d -1 -p RTS -e 44 -c 2 -a 0 -i 0 -k MAC
h -t 12.249946800 -s 7 -d -1 -p RTS -e 44 -c 2 -a 0 -i 0 -k MAC
r -t 12.250299600 -s 11 -d -1 -p RTS -e 44 -c 2 -a 0 -i 0 -k MAC
+ -t 12.250309600 -s 11 -d -1 -p CTS -e 38 -c 2 -a 0 -i 0 -k MAC 
- -t 12.250309600 -s 11 -d -1 -p CTS -e 38 -c 2 -a 0 -i 0 -k MAC
h -t 12.250309600 -s 11 -d -1 -p CTS -e 38 -c 2 -a 0 -i 0 -k MAC
r -t 12.250614400 -s 7 -d -1 -p CTS -e 38 -c 2 -a 0 -i 0 -k MAC
+ -t 12.250624400 -s 7 -d 11 -p cbr -e 578 -c 2 -a 0 -i 34 -k MAC 
- -t 12.250624400 -s 7 -d 11 -p cbr -e 578 -c 2 -a 0 -i 34 -k MAC
h -t 12.250624400 -s 7 -d 11 -p cbr -e 578 -c 2 -a 0 -i 34 -k MAC
r -t 12.255249200 -s 11 -d 11 -p cbr -e 520 -c 2 -a 0 -i 34 -k MAC
+ -t 12.255259200 -s 11 -d -1 -p ACK -e 38 -c 2 -a 0 -i 0 -k MAC 
- -t 12.255259200 -s 11 -d -1 -p ACK -e 38 -c 2 -a 0 -i 0 -k MAC
h -t 12.255259200 -s 11 -d -1 -p ACK -e 38 -c 2 -a 0 -i 0 -k MAC
r -t 12.255564000 -s 7 -d -1 -p ACK -e 38 -c 2 -a 0 -i 0 -k MAC
+ -t 12.255873200 -s 11 -d -1 -p ARP -e 86 -c 2 -a 0 -i 0 -k MAC 
- -t 12.255873200 -s 11 -d -1 -p ARP -e 86 -c 2 -a 0 -i 0 -k MAC
h -t 12.255873200 -s 11 -d -1 -p ARP -e 86 -c 2 -a 0 -i 0 -k MAC
r -t 12.256562000 -s 7 -d -1 -p ARP -e 28 -c 2 -a 0 -i 0 -k MAC
r -t 12.256562000 -s 10 -d -1 -p ARP -e 28 -c 2 -a 0 -i 0 -k MAC
r -t 12.256562000 -s 15 -d -1 -p ARP -e 28 -c 2 -a 0 -i 0 -k MAC
+ -t 12.256997000 -s 15 -d -1 -p RTS -e 44 -c 2 -a 0 -i 0 -k MAC 
- -t 12.256997000 -s 15 -d -1 -p RTS -e 44 -c 2 -a 0 -i 0 -k MAC
h -t 12.256997000 -s 15 -d -1 -p RTS -e 44 -c 2 -a 0 -i 0 -k MAC
r -t 12.257349800 -s 11 -d -1 -p RTS -e 44 -c 2 -a 0 -i 0 -k MAC
+ -t 12.257359800 -s 11 -d -1 -p CTS -e 38 -c 2 -a 0 -i 0 -k MAC 
- -t 12.257359800 -s 11 -d -1 -p CTS -e 38 -c 2 -a 0 -i 0 -k MAC
h -t 12.257359800 -s 11 -d -1 -p CTS -e 38 -c 2 -a 0 -i 0 -k MAC
r -t 12.257664600 -s 15 -d -1 -p CTS -e 38 -c 2 -a 0 -i 0 -k MAC
+ -t 12.257674600 -s 15 -d -1 -p ARP -e 86 -c 2 -a 0 -i 0 -k MAC 
- -t 12.257674600 -s 15 -d -1 -p ARP -e 86 -c 2 -a 0 -i 0 -k MAC
h -t 12.257674600 -s 15 -d -1 -p ARP -e 86 -c 2 -a 0 -i 0 -k MAC
r -t 12.258363400 -s 11 -d -1 -p ARP -e 28 -c 2 -a 0 -i 0 -k MAC
+ -t 12.258373400 -s 11 -d -1 -p ACK -e 38 -c 2 -a 0 -i 0 -k MAC 
- -t 12.258373400 -s 11 -d -1 -p ACK -e 38 -c 2 -a 0 -i 0 -k MAC
h -t 12.258373400 -s 11 -d -1 -p ACK -e 38 -c 2 -a 0 -i 0 -k MAC
r -t 12.258678200 -s 15 -d -1 -p ACK -e 38 -c 2 -a 0 -i 0 -k MAC
+ -t 12.259167400 -s 11 -d -1 -p RTS -e 44 -c 2 -a 0 -i 0 -k MAC 
- -t 12.259167400 -s 11 -d -1 -p RTS -e 44 -c 2 -a 0 -i 0 -k MAC
h -t 12.259167400 -s 11 -d -1 -p RTS -e 44 -c 2 -a 0 -i 0 -k MAC
r -t 12.259520200 -s 15 -d -1 -p RTS -e 44 -c 2 -a 0 -i 0 -k MAC
+ -t 12.259530200 -s 15 -d -1 -p CTS -e 38 -c 2 -a 0 -i 0 -k MAC 
- -t 12.259530200 -s 15 -d -1 -p CTS -e 38 -c 2 -a 0 -i 0 -k MAC
h -t 12.259530200 -s 15 -d -1 -p CTS -e 38 -c 2 -a 0 -i 0 -k MAC
r -t 12.259835000 -s 11 -d -1 -p CTS -e 38 -c 2 -a 0 -i 0 -k MAC
+ -t 12.259845000 -s 11 -d 15 -p cbr -e 578 -c 2 -a 0 -i 34 -k MAC 
- -t 12.259845000 -s 11 -d 15 -p cbr -e 578 -c 2 -a 0 -i 34 -k MAC
h -t 12.259845000 -s 11 -d 15 -p cbr -e 578 -c 2 -a 0 -i 34 -k MAC
r -t 12.264469800 -s 15 -d 15 -p cbr -e 520 -c 2 -a 0 -i 34 -k MAC
+ -t 12.264479800 -s 15 -d -1 -p ACK -e 38 -c 2 -a 0 -i 0 -k MAC 
- -t 12.264479800 -s 15 -d -1 -p ACK -e 38 -c 2 -a 0 -i 0 -k MAC
h -t 12.264479800 -s 15 -d -1 -p ACK -e 38 -c 2 -a 0 -i 0 -k MAC
r -t 12.264494800 -s 15 -d 15 -p cbr -e 520 -c 2 -a 0 -i 34 -k AGT
r -t 12.264784600 -s 11 -d -1 -p ACK -e 38 -c 2 -a 0 -i 0 -k MAC
+ -t 12.332503735 -s 13 -d -1 -p message -e 90 -c 2 -a 0 -i 36 -k MAC 
- -t 12.332503735 -s 13 -d -1 -p message -e 90 -c 2 -a 0 -i 36 -k MAC
h -t 12.332503735 -s 13 -d -1 -p message -e 90 -c 2 -a 0 -i 36 -k MAC
r -t 12.333224535 -s 9 -d -1 -p message -e 32 -c 2 -a 0 -i 36 -k MAC
r -t 12.333224535 -s 12 -d -1 -p message -e 32 -c 2 -a 0 -i 36 -k MAC
r -t 12.333224535 -s 14 -d -1 -p message -e 32 -c 2 -a 0 -i 36 -k MAC
+ -t 12.339026426 -s 8 -d -1 -p message -e 90 -c 2 -a 0 -i 35 -k MAC 
- -t 12.339026426 -s 8 -d -1 -p message -e 90 -c 2 -a 0 -i 35 -k MAC
h -t 12.339026426 -s 8 -d -1 -p message -e 90 -c 2 -a 0 -i 35 -k MAC
r -t 12.339747226 -s 4 -d -1 -p message -e 32 -c 2 -a 0 -i 35 -k MAC
r -t 12.339747226 -s 12 -d -1 -p message -e 32 -c 2 -a 0 -i 35 -k MAC
r -t 12.339747226 -s 9 -d -1 -p message -e 32 -c 2 -a 0 -i 35 -k MAC
+ -t 12.457800000 -s 7 -d -1 -p cbr -e 500 -c 2 -a 0 -i 37 -k AGT 
- -t 12.457800000 -s 7 -d -1 -p cbr -e 500 -c 2 -a 0 -i 37 -k AGT
h -t 12.457800000 -s 7 -d -1 -p cbr -e 500 -c 2 -a 0 -i 37 -k AGT
+ -t 12.523400000 -s 0 -d -1 -p cbr -e 500 -c 2 -a 0 -i 38 -k AGT 
- -t 12.523400000 -s 0 -d -1 -p cbr -e 500 -c 2 -a 0 -i 38 -k AGT
h -t 12.523400000 -s 0 -d -1 -p cbr -e 500 -c 2 -a 0 -i 38 -k AGT
+ -t 12.586658203 -s 2 -d -1 -p message -e 90 -c 2 -a 0 -i 39 -k MAC 
- -t 12.586658203 -s 2 -d -1 -p message -e 90 -c 2 -a 0 -i 39 -k MAC
h -t 12.586658203 -s 2 -d -1 -p message -e 90 -c 2 -a 0 -i 39 -k MAC
r -t 12.587379003 -s 1 -d -1 -p message -e 32 -c 2 -a 0 -i 39 -k MAC
r -t 12.587379003 -s 6 -d -1 -p message -e 32 -c 2 -a 0 -i 39 -k MAC
r -t 12.587379003 -s 3 -d -1 -p message -e 32 -c 2 -a 0 -i 39 -k MAC
+ -t 12.635152561 -s 10 -d -1 -p message -e 90 -c 2 -a 0 -i 41 -k MAC 
- -t 12.635152561 -s 10 -d -1 -p message -e 90 -c 2 -a 0 -i 41 -k MAC
h -t 12.635152561 -s 10 -d -1 -p message -e 90 -c 2 -a 0 -i 41 -k MAC
r -t 12.635873361 -s 6 -d -1 -p message -e 32 -c 2 -a 0 -i 41 -k MAC
r -t 12.635873361 -s 9 -d -1 -p message -e 32 -c 2 -a 0 -i 41 -k MAC
r -t 12.635873361 -s 14 -d -1 -p message -e 32 -c 2 -a 0 -i 41 -k MAC
r -t 12.635873361 -s 11 -d -1 -p message -e 32 -c 2 -a 0 -i 41 -k MAC
+ -t 12.642807995 -s 5 -d -1 -p message -e 90 -c 2 -a 0 -i 40 -k MAC 
- -t 12.642807995 -s 5 -d -1 -p message -e 90 -c 2 -a 0 -i 40 -k MAC
h -t 12.642807995 -s 5 -d -1 -p message -e 90 -c 2 -a 0 -i 40 -k MAC
r -t 12.643528795 -s 1 -d -1 -p message -e 32 -c 2 -a 0 -i 40 -k MAC
r -t 12.643528795 -s 4 -d -1 -p message -e 32 -c 2 -a 0 -i 40 -k MAC
r -t 12.643528795 -s 9 -d -1 -p message -e 32 -c 2 -a 0 -i 40 -k MAC
r -t 12.643528795 -s 6 -d -1 -p message -e 32 -c 2 -a 0 -i 40 -k MAC
+ -t 12.718400000 -s 2 -d -1 -p cbr -e 500 -c 2 -a 0 -i 42 -k AGT 
- -t 12.718400000 -s 2 -d -1 -p cbr -e 500 -c 2 -a 0 -i 42 -k AGT
h -t 12.718400000 -s 2 -d -1 -p cbr -e 500 -c 2 -a 0 -i 42 -k AGT
+ -t 12.745600000 -s 7 -d -1 -p cbr -e 500 -c 2 -a 0 -i 43 -k AGT 
- -t 12.745600000 -s 7 -d -1 -p cbr -e 500 -c 2 -a 0 -i 43 -k AGT
h -t 12.745600000 -s 7 -d -1 -p cbr -e 500 -c 2 -a 0 -i 43 -k AGT
+ -t 12.745915000 -s 7 -d -1 -p RTS -e 44 -c 2 -a 0 -i 0 -k MAC 
- -t 12.745915000 -s 7 -d -1 -p RTS -e 44 -c 2 -a 0 -i 0 -k MAC
h -t 12.745915000 -s 7 -d -1 -p RTS -e 44 -c 2 -a 0 -i 0 -k MAC
r -t 12.746267800 -s 11 -d -1 -p RTS -e 44 -c 2 -a 0 -i 0 -k MAC
+ -t 12.746277800 -s 11 -d -1 -p CTS -e 38 -c 2 -a 0 -i 0 -k MAC 
- -t 12.746277800 -s 11 -d -1 -p CTS -e 38 -c 2 -a 0 -i 0 -k MAC
h -t 12.746277800 -s 11 -d -1 -p CTS -e 38 -c 2 -a 0 -i 0 -k MAC
r -t 12.746582600 -s 7 -d -1 -p CTS -e 38 -c 2 -a 0 -i 0 -k MAC
+ -t 12.746592600 -s 7 -d 11 -p cbr -e 578 -c 2 -a 0 -i 43 -k MAC 
- -t 12.746592600 -s 7 -d 11 -p cbr -e 578 -c 2 -a 0 -i 43 -k MAC
h -t 12.746592600 -s 7 -d 11 -p cbr -e 578 -c 2 -a 0 -i 43 -k MAC
r -t 12.751217400 -s 11 -d 11 -p cbr -e 520 -c 2 -a 0 -i 43 -k MAC
+ -t 12.751227400 -s 11 -d -1 -p ACK -e 38 -c 2 -a 0 -i 0 -k MAC 
- -t 12.751227400 -s 11 -d -1 -p ACK -e 38 -c 2 -a 0 -i 0 -k MAC
h -t 12.751227400 -s 11 -d -1 -p ACK -e 38 -c 2 -a 0 -i 0 -k MAC
r -t 12.751532200 -s 7 -d -1 -p ACK -e 38 -c 2 -a 0 -i 0 -k MAC
+ -t 12.752101400 -s 11 -d -1 -p RTS -e 44 -c 2 -a 0 -i 0 -k MAC 
- -t 12.752101400 -s 11 -d -1 -p RTS -e 44 -c 2 -a 0 -i 0 -k MAC
h -t 12.752101400 -s 11 -d -1 -p RTS -e 44 -c 2 -a 0 -i 0 -k MAC
r -t 12.752454200 -s 15 -d -1 -p RTS -e 44 -c 2 -a 0 -i 0 -k MAC
+ -t 12.752464200 -s 15 -d -1 -p CTS -e 38 -c 2 -a 0 -i 0 -k MAC 
- -t 12.752464200 -s 15 -d -1 -p CTS -e 38 -c 2 -a 0 -i 0 -k MAC
h -t 12.752464200 -s 15 -d -1 -p CTS -e 38 -c 2 -a 0 -i 0 -k MAC
r -t 12.752769000 -s 11 -d -1 -p CTS -e 38 -c 2 -a 0 -i 0 -k MAC
+ -t 12.752779000 -s 11 -d 15 -p cbr -e 578 -c 2 -a 0 -i 43 -k MAC 
- -t 12.752779000 -s 11 -d 15 -p cbr -e 578 -c 2 -a 0 -i 43 -k MAC
h -t 12.752779000 -s 11 -d 15 -p cbr -e 578 -c 2 -a 0 -i 43 -k MAC
r -t 12.757403800 -s 15 -d 15 -p cbr -e 520 -c 2 -a 0 -i 43 -k MAC
+ -t 12.757413800 -s 15 -d -1 -p ACK -e 38 -c 2 -a 0 -i 0 -k MAC 
- -t 12.757413800 -s 15 -d -1 -p ACK -e 38 -c 2 -a 0 -i 0 -k MAC
h -t 12.757413800 -s 15 -d -1 -p ACK -e 38 -c 2 -a 0 -i 0 -k MAC
r -t 12.757428800 -s 15 -d 15 -p cbr -e 520 -c 2 -a 0 -i 43 -k AGT
r -t 12.757718600 -s 11 -d -1 -p ACK -e 38 -c 2 -a 0 -i 0 -k MAC
+ -t 12.848481297 -s 0 -d -1 -p message -e 90 -c 2 -a 0 -i 44 -k MAC 
- -t 12.848481297 -s 0 -d -1 -p message -e 90 -c 2 -a 0 -i 44 -k MAC
h -t 12.848481297 -s 0 -d -1 -p message -e 90 -c 2 -a 0 -i 44 -k MAC
r -t 12.849202097 -s 4 -d -1 -p message -e 32 -c 2 -a 0 -i 44 -k MAC
r -t 12.849202097 -s 1 -d -1 -p message -e 32 -c 2 -a 0 -i 44 -k MAC
+ -t 12.849737086 -s 6 -d -1 -p message -e 102 -c 2 -a 0 -i 45 -k MAC 
- -t 12.849737086 -s 6 -d -1 -p message -e 102 -c 2 -a 0 -i 45 -k MAC
h -t 12.849737086 -s 6 -d -1 -p message -e 102 -c 2 -a 0 -i 45 -k MAC
r -t 12.850553886 -s 2 -d -1 -p message -e 44 -c 2 -a 0 -i 45 -k MAC
r -t 12.850553886 -s 5 -d -1 -p message -e 44 -c 2 -a 0 -i 45 -k MAC
r -t 12.850553886 -s 10 -d -1 -p message -e 44 -c 2 -a 0 -i 45 -k MAC
r -t 12.850553886 -s 7 -d -1 -p message -e 44 -c 2 -a 0 -i 45 -k MAC
+ -t 12.957800000 -s 7 -d -1 -p cbr -e 500 -c 2 -a 0 -i 46 -k AGT 
- -t 12.957800000 -s 7 -d -1 -p cbr -e 500 -c 2 -a 0 -i 46 -k AGT
h -t 12.957800000 -s 7 -d -1 -p cbr -e 500 -c 2 -a 0 -i 46 -k AGT
d -t 12.957800000 -s 7 -d -1 -p cbr -e 520 -c 2 -a 0 -i 16 -k RTR
+ -t 13.020970538 -s 4 -d -1 -p message -e 90 -c 2 -a 0 -i 48 -k MAC 
- -t 13.020970538 -s 4 -d -1 -p message -e 90 -c 2 -a 0 -i 48 -k MAC
h -t 13.020970538 -s 4 -d -1 -p message -e 90 -c 2 -a 0 -i 48 -k MAC
r -t 13.021691338 -s 0 -d -1 -p message -e 32 -c 2 -a 0 -i 48 -k MAC
r -t 13.021691338 -s 8 -d -1 -p message -e 32 -c 2 -a 0 -i 48 -k MAC
r -t 13.021691338 -s 5 -d -1 -p message -e 32 -c 2 -a 0 -i 48 -k MAC
+ -t 13.023400000 -s 0 -d -1 -p cbr -e 500 -c 2 -a 0 -i 49 -k AGT 
- -t 13.023400000 -s 0 -d -1 -p cbr -e 500 -c 2 -a 0 -i 49 -k AGT
h -t 13.023400000 -s 0 -d -1 -p cbr -e 500 -c 2 -a 0 -i 49 -k AGT
+ -t 13.090936751 -s 13 -d -1 -p message -e 102 -c 2 -a 0 -i 50 -k MAC 
- -t 13.090936751 -s 13 -d -1 -p message -e 102 -c 2 -a 0 -i 50 -k MAC
h -t 13.090936751 -s 13 -d -1 -p message -e 102 -c 2 -a 0 -i 50 -k MAC
r -t 13.091753551 -s 9 -d -1 -p message -e 44 -c 2 -a 0 -i 50 -k MAC
r -t 13.091753551 -s 12 -d -1 -p message -e 44 -c 2 -a 0 -i 50 -k MAC
r -t 13.091753551 -s 14 -d -1 -p message -e 44 -c 2 -a 0 -i 50 -k MAC
+ -t 13.094470228 -s 14 -d -1 -p message -e 114 -c 2 -a 0 -i 51 -k MAC 
- -t 13.094470228 -s 14 -d -1 -p message -e 114 -c 2 -a 0 -i 51 -k MAC
h -t 13.094470228 -s 14 -d -1 -p message -e 114 -c 2 -a 0 -i 51 -k MAC
r -t 13.095383028 -s 10 -d -1 -p message -e 56 -c 2 -a 0 -i 51 -k MAC
r -t 13.095383028 -s 13 -d -1 -p message -e 56 -c 2 -a 0 -i 51 -k MAC
r -t 13.095383028 -s 15 -d -1 -p message -e 56 -c 2 -a 0 -i 51 -k MAC
+ -t 13.097271528 -s 12 -d -1 -p message -e 102 -c 2 -a 0 -i 54 -k MAC 
- -t 13.097271528 -s 12 -d -1 -p message -e 102 -c 2 -a 0 -i 54 -k MAC
h -t 13.097271528 -s 12 -d -1 -p message -e 102 -c 2 -a 0 -i 54 -k MAC
r -t 13.098088328 -s 8 -d -1 -p message -e 44 -c 2 -a 0 -i 54 -k MAC
r -t 13.098088328 -s 13 -d -1 -p message -e 44 -c 2 -a 0 -i 54 -k MAC
+ -t 13.099022659 -s 9 -d -1 -p message -e 114 -c 2 -a 0 -i 53 -k MAC 
- -t 13.099022659 -s 9 -d -1 -p message -e 114 -c 2 -a 0 -i 53 -k MAC
h -t 13.099022659 -s 9 -d -1 -p message -e 114 -c 2 -a 0 -i 53 -k MAC
r -t 13.099935459 -s 5 -d -1 -p message -e 56 -c 2 -a 0 -i 53 -k MAC
r -t 13.099935459 -s 8 -d -1 -p message -e 56 -c 2 -a 0 -i 53 -k MAC
r -t 13.099935459 -s 13 -d -1 -p message -e 56 -c 2 -a 0 -i 53 -k MAC
r -t 13.099935459 -s 10 -d -1 -p message -e 56 -c 2 -a 0 -i 53 -k MAC
+ -t 13.100449790 -s 12 -d -1 -p message -e 102 -c 2 -a 0 -i 52 -k MAC 
- -t 13.100449790 -s 12 -d -1 -p message -e 102 -c 2 -a 0 -i 52 -k MAC
h -t 13.100449790 -s 12 -d -1 -p message -e 102 -c 2 -a 0 -i 52 -k MAC
r -t 13.101266590 -s 8 -d -1 -p message -e 44 -c 2 -a 0 -i 52 -k MAC
r -t 13.101266590 -s 13 -d -1 -p message -e 44 -c 2 -a 0 -i 52 -k MAC
+ -t 13.115356289 -s 4 -d -1 -p message -e 102 -c 2 -a 0 -i 55 -k MAC 
- -t 13.115356289 -s 4 -d -1 -p message -e 102 -c 2 -a 0 -i 55 -k MAC
h -t 13.115356289 -s 4 -d -1 -p message -e 102 -c 2 -a 0 -i 55 -k MAC
r -t 13.116173089 -s 0 -d -1 -p message -e 44 -c 2 -a 0 -i 55 -k MAC
r -t 13.116173089 -s 8 -d -1 -p message -e 44 -c 2 -a 0 -i 55 -k MAC
r -t 13.116173089 -s 5 -d -1 -p message -e 44 -c 2 -a 0 -i 55 -k MAC
+ -t 13.216321023 -s 7 -d -1 -p message -e 90 -c 2 -a 0 -i 57 -k MAC 
- -t 13.216321023 -s 7 -d -1 -p message -e 90 -c 2 -a 0 -i 57 -k MAC
h -t 13.216321023 -s 7 -d -1 -p message -e 90 -c 2 -a 0 -i 57 -k MAC
r -t 13.217041823 -s 3 -d -1 -p message -e 32 -c 2 -a 0 -i 57 -k MAC
r -t 13.217041823 -s 6 -d -1 -p message -e 32 -c 2 -a 0 -i 57 -k MAC
r -t 13.217041823 -s 11 -d -1 -p message -e 32 -c 2 -a 0 -i 57 -k MAC
+ -t 13.218400000 -s 2 -d -1 -p cbr -e 500 -c 2 -a 0 -i 58 -k AGT 
- -t 13.218400000 -s 2 -d -1 -p cbr -e 500 -c 2 -a 0 -i 58 -k AGT
h -t 13.218400000 -s 2 -d -1 -p cbr -e 500 -c 2 -a 0 -i 58 -k AGT
+ -t 13.242529307 -s 11 -d -1 -p message -e 102 -c 2 -a 0 -i 59 -k MAC 
- -t 13.242529307 -s 11 -d -1 -p message -e 102 -c 2 -a 0 -i 59 -k MAC
h -t 13.242529307 -s 11 -d -1 -p message -e 102 -c 2 -a 0 -i 59 -k MAC
r -t 13.243346107 -s 7 -d -1 -p message -e 44 -c 2 -a 0 -i 59 -k MAC
r -t 13.243346107 -s 10 -d -1 -p message -e 44 -c 2 -a 0 -i 59 -k MAC
r -t 13.243346107 -s 15 -d -1 -p message -e 44 -c 2 -a 0 -i 59 -k MAC
+ -t 13.245600000 -s 7 -d -1 -p cbr -e 500 -c 2 -a 0 -i 60 -k AGT 
- -t 13.245600000 -s 7 -d -1 -p cbr -e 500 -c 2 -a 0 -i 60 -k AGT
h -t 13.245600000 -s 7 -d -1 -p cbr -e 500 -c 2 -a 0 -i 60 -k AGT
+ -t 13.245755000 -s 7 -d -1 -p RTS -e 44 -c 2 -a 0 -i 0 -k MAC 
- -t 13.245755000 -s 7 -d -1 -p RTS -e 44 -c 2 -a 0 -i 0 -k MAC
h -t 13.245755000 -s 7 -d -1 -p RTS -e 44 -c 2 -a 0 -i 0 -k MAC
r -t 13.246107800 -s 11 -d -1 -p RTS -e 44 -c 2 -a 0 -i 0 -k MAC
+ -t 13.246117800 -s 11 -d -1 -p CTS -e 38 -c 2 -a 0 -i 0 -k MAC 
- -t 13.246117800 -s 11 -d -1 -p CTS -e 38 -c 2 -a 0 -i 0 -k MAC
h -t 13.246117800 -s 11 -d -1 -p CTS -e 38 -c 2 -a 0 -i 0 -k MAC
r -t 13.246422600 -s 7 -d -1 -p CTS -e 38 -c 2 -a 0 -i 0 -k MAC
+ -t 13.246432600 -s 7 -d 11 -p cbr -e 578 -c 2 -a 0 -i 60 -k MAC 
- -t 13.246432600 -s 7 -d 11 -p cbr -e 578 -c 2 -a 0 -i 60 -k MAC
h -t 13.246432600 -s 7 -d 11 -p cbr -e 578 -c 2 -a 0 -i 60 -k MAC
r -t 13.251057400 -s 11 -d 11 -p cbr -e 520 -c 2 -a 0 -i 60 -k MAC
+ -t 13.251067400 -s 11 -d -1 -p ACK -e 38 -c 2 -a 0 -i 0 -k MAC 
- -t 13.251067400 -s 11 -d -1 -p ACK -e 38 -c 2 -a 0 -i 0 -k MAC
h -t 13.251067400 -s 11 -d -1 -p ACK -e 38 -c 2 -a 0 -i 0 -k MAC
r -t 13.251372200 -s 7 -d -1 -p ACK -e 38 -c 2 -a 0 -i 0 -k MAC
+ -t 13.251981400 -s 11 -d -1 -p RTS -e 44 -c 2 -a 0 -i 0 -k MAC 
- -t 13.251981400 -s 11 -d -1 -p RTS -e 44 -c 2 -a 0 -i 0 -k MAC
h -t 13.251981400 -s 11 -d -1 -p RTS -e 44 -c 2 -a 0 -i 0 -k MAC
r -t 13.252334200 -s 15 -d -1 -p RTS -e 44 -c 2 -a 0 -i 0 -k MAC
+ -t 13.252344200 -s 15 -d -1 -p CTS -e 38 -c 2 -a 0 -i 0 -k MAC 
- -t 13.252344200 -s 15 -d -1 -p CTS -e 38 -c 2 -a 0 -i 0 -k MAC
h -t 13.252344200 -s 15 -d -1 -p CTS -e 38 -c 2 -a 0 -i 0 -k MAC
r -t 13.252649000 -s 11 -d -1 -p CTS -e 38 -c 2 -a 0 -i 0 -k MAC
+ -t 13.252659000 -s 11 -d 15 -p cbr -e 578 -c 2 -a 0 -i 60 -k MAC 