n -t * -s 0  -x 50 -y 100 -Z 0 -z 30  -v circle -c black
n -t * -s 1  -x 50 -y 200 -Z 0 -z 30  -v circle -c black
n -t * -s 2  -x 50 -y 20 -Z 0 -z 30  -v circle -c black
n -t * -s 3  -x 90 -y 212 -Z 0 -z 30  -v circle -c black
n -t * -s 4  -x 6 -y 59 -Z 0 -z 30  -v circle -c black
n -t * -s 5  -x 109 -y 80 -Z 0 -z 30  -v circle -c black
n -t * -s 6  -x 70 -y 20 -Z 0 -z 30  -v circle -c black
n -t * -s 7  -x 300 -y 40 -Z 0 -z 30  -v circle -c black
n -t * -s 8  -x 140 -y 280 -Z 0 -z 30  -v circle -c black
n -t * -s 9  -x 24 -y 310 -Z 0 -z 30  -v circle -c black
n -t * -s 10  -x 57 -y 340 -Z 0 -z 30  -v circle -c black
n -t * -s 11  -x 98 -y 400 -Z 0 -z 30  -v circle -c black
n -t * -s 12  -x 60 -y 70 -Z 0 -z 30  -v circle -c black
n -t * -s 13  -x 20 -y 200 -Z 0 -z 30  -v circle -c black
n -t * -s 14  -x 0 -y 95 -Z 0 -z 30  -v circle -c black
n -t * -s 15  -x 50 -y 80 -Z 0 -z 30  -v circle -c black
V -t * -v 1.0a5 -a 0
W -t * -x 500 -y 400
A -t * -n 1 -p 0 -o 0xffffffff -c 31 -a 1
A -t * -h 1 -m 2147483647 -s 0
n -t 0.000000 -s 0 -x 50.000000 -y 100.000000 -U 9.974160 -V 0.718423 -T 19.720099
n -t 0.000000 -s 1 -x 50.000000 -y 200.000000 -U -2.197148 -V 9.755641 -T 16.570265
n -t 0.000000 -s 2 -x 50.000000 -y 20.000000 -U 6.824392 -V 7.309423 -T 49.723196
n -t 0.000000 -s 3 -x 90.000000 -y 212.000000 -U 9.003061 -V 4.352572 -T 18.968698
n -t 0.000000 -s 4 -x 6.000000 -y 59.000000 -U 7.963483 -V 6.048384 -T 48.546693
n -t 0.000000 -s 5 -x 109.000000 -y 80.000000 -U 7.338584 -V 6.793025 -T 25.327247
n -t 0.000000 -s 6 -x 70.000000 -y 20.000000 -U 7.303707 -V 6.830510 -T 21.406477
n -t 0.000000 -s 7 -x 300.000000 -y 40.000000 -U -6.833984 -V 7.300456 -T 41.748390
n -t 0.000000 -s 8 -x 140.000000 -y 280.000000 -U 7.421717 -V -6.702098 -T 41.062670
n -t 0.000000 -s 9 -x 24.000000 -y 310.000000 -U 9.999998 -V -0.005764 -T 19.111203
n -t 0.000000 -s 10 -x 57.000000 -y 340.000000 -U 9.991617 -V -0.409379 -T 34.135884
n -t 0.000000 -s 11 -x 98.000000 -y 400.000000 -U 7.416637 -V -6.707719 -T 39.053601
n -t 0.000000 -s 12 -x 60.000000 -y 70.000000 -U -0.944350 -V 9.955310 -T 26.273532
n -t 0.000000 -s 13 -x 20.000000 -y 200.000000 -U 9.583921 -V -2.854550 -T 17.271547
n -t 0.000000 -s 14 -x 0.000000 -y 95.000000 -U 9.742234 -V 2.255854 -T 47.840250
n -t 0.000000 -s 15 -x 50.000000 -y 80.000000 -U 4.695002 -V 8.829324 -T 12.544700
n -t 0.000000 -s 0 -x 50.000000 -y 100.000000 -U 8.714939 -V -4.904063 -T 12.027565
n -t 0.000000 -s 1 -x 50.000000 -y 200.000000 -U 7.013374 -V -7.128295 -T 20.850390
n -t 0.000000 -s 2 -x 50.000000 -y 20.000000 -U 5.238346 -V 8.518200 -T 41.482051
n -t 0.000000 -s 3 -x 90.000000 -y 212.000000 -U 4.641590 -V 8.857519 -T 16.623497
n -t 0.000000 -s 4 -x 6.000000 -y 59.000000 -U 6.928687 -V 7.210638 -T 34.521493
n -t 0.000000 -s 5 -x 109.000000 -y 80.000000 -U -8.779379 -V -4.787746 -T 6.030965
n -t 0.000000 -s 6 -x 70.000000 -y 20.000000 -U 0.434776 -V 9.990544 -T 18.579704
n -t 0.000000 -s 7 -x 300.000000 -y 40.000000 -U 3.914208 -V 9.202118 -T 12.139185
n -t 0.000000 -s 8 -x 140.000000 -y 280.000000 -U 0.691483 -V -9.976064 -T 25.731836
n -t 0.000000 -s 9 -x 24.000000 -y 310.000000 -U 8.570532 -V -5.152279 -T 50.006600
n -t 0.000000 -s 10 -x 57.000000 -y 340.000000 -U 8.272891 -V -5.617765 -T 35.569536
n -t 0.000000 -s 11 -x 98.000000 -y 400.000000 -U 9.222315 -V -3.866381 -T 41.372495
n -t 0.000000 -s 12 -x 60.000000 -y 70.000000 -U 9.464537 -V 3.228396 -T 36.114894
n -t 0.000000 -s 13 -x 20.000000 -y 200.000000 -U 4.170843 -V -9.088678 -T 16.710853
n -t 0.000000 -s 14 -x 0.000000 -y 95.000000 -U 8.639624 -V 5.035564 -T 52.108307
n -t 0.000000 -s 15 -x 50.000000 -y 80.000000 -U 9.859198 -V -1.672190 -T 37.145691
n -t 0.000000 -s 0 -x 50.000000 -y 100.000000 -U 6.790339 -V 7.341069 -T 29.284003
n -t 0.000000 -s 1 -x 50.000000 -y 200.000000 -U 9.349501 -V -3.547793 -T 21.336821
n -t 0.000000 -s 2 -x 50.000000 -y 20.000000 -U 9.994111 -V -0.343129 -T 36.682869
n -t 0.000000 -s 3 -x 90.000000 -y 212.000000 -U 8.137736 -V -5.811820 -T 18.329932
n -t 0.000000 -s 4 -x 6.000000 -y 59.000000 -U 7.557599 -V 6.548488 -T 37.218669
n -t 0.000000 -s 5 -x 109.000000 -y 80.000000 -U 9.985240 -V -0.543117 -T 28.650114
n -t 0.000000 -s 6 -x 70.000000 -y 20.000000 -U 5.151594 -V 8.570944 -T 43.934865
n -t 0.000000 -s 7 -x 300.000000 -y 40.000000 -U -0.130574 -V 9.999147 -T 14.068497
n -t 0.000000 -s 8 -x 140.000000 -y 280.000000 -U 5.228078 -V -8.524506 -T 14.023492
n -t 0.000000 -s 9 -x 24.000000 -y 310.000000 -U 9.956118 -V -0.935801 -T 47.193258
n -t 0.000000 -s 10 -x 57.000000 -y 340.000000 -U 9.990055 -V -0.445879 -T 33.584346
n -t 0.000000 -s 11 -x 98.000000 -y 400.000000 -U 9.704432 -V -2.413298 -T 28.858113
n -t 0.000000 -s 12 -x 60.000000 -y 70.000000 -U 8.528297 -V 5.221892 -T 37.868710
n -t 0.000000 -s 13 -x 20.000000 -y 200.000000 -U -0.265093 -V 9.996486 -T 17.097497
n -t 0.000000 -s 14 -x 0.000000 -y 95.000000 -U 9.105712 -V 4.133523 -T 50.299882
n -t 0.000000 -s 15 -x 50.000000 -y 80.000000 -U 9.662734 -V 2.575185 -T 34.259894
n -t 0.000000 -s 0 -x 50.000000 -y 100.000000 -U 7.915420 -V 6.111148 -T 20.103276
n -t 0.000000 -s 1 -x 50.000000 -y 200.000000 -U 8.856782 -V -4.642996 -T 37.913705
n -t 0.000000 -s 2 -x 50.000000 -y 20.000000 -U -3.223443 -V 9.466225 -T 11.530637
n -t 0.000000 -s 3 -x 90.000000 -y 212.000000 -U 8.245860 -V 5.657366 -T 27.129493
n -t 0.000000 -s 4 -x 6.000000 -y 59.000000 -U 7.526712 -V 6.583966 -T 40.233237
n -t 0.000000 -s 5 -x 109.000000 -y 80.000000 -U 0.146126 -V 9.998932 -T 29.727298
n -t 0.000000 -s 6 -x 70.000000 -y 20.000000 -U 7.243494 -V 6.894331 -T 40.995817
n -t 0.000000 -s 7 -x 300.000000 -y 40.000000 -U -9.519479 -V 3.062601 -T 25.085047
n -t 0.000000 -s 8 -x 140.000000 -y 280.000000 -U 7.313722 -V -6.819786 -T 29.702780
n -t 0.000000 -s 9 -x 24.000000 -y 310.000000 -U 8.729324 -V -4.878412 -T 29.222491
n -t 0.000000 -s 10 -x 57.000000 -y 340.000000 -U 5.528986 -V -8.332486 -T 29.272011
n -t 0.000000 -s 11 -x 98.000000 -y 400.000000 -U 4.454830 -V -8.952904 -T 36.375347
n -t 0.000000 -s 12 -x 60.000000 -y 70.000000 -U 6.692214 -V 7.430631 -T 18.784819
n -t 0.000000 -s 13 -x 20.000000 -y 200.000000 -U 3.061733 -V 9.519758 -T 18.992683
n -t 0.000000 -s 14 -x 0.000000 -y 95.000000 -U 6.526184 -V 7.576868 -T 38.710519
n -t 0.000000 -s 15 -x 50.000000 -y 80.000000 -U 9.966905 -V 0.812903 -T 24.259347
n -t 0.000000 -s 0 -x 50.000000 -y 100.000000 -U -2.060867 -V 9.785337 -T 22.936303
n -t 0.000000 -s 1 -x 50.000000 -y 200.000000 -U 1.770315 -V -9.842052 -T 9.890485
n -t 0.000000 -s 2 -x 50.000000 -y 20.000000 -U 4.532136 -V 8.914019 -T 33.576143
n -t 0.000000 -s 3 -x 90.000000 -y 212.000000 -U -1.973668 -V -9.803297 -T 15.195334
n -t 0.000000 -s 4 -x 6.000000 -y 59.000000 -U 7.779506 -V 6.283255 -T 37.743958
n -t 0.000000 -s 5 -x 109.000000 -y 80.000000 -U 6.155348 -V 7.881097 -T 38.244580
n -t 0.000000 -s 6 -x 70.000000 -y 20.000000 -U 9.581029 -V 2.864243 -T 37.764594
n -t 0.000000 -s 7 -x 300.000000 -y 40.000000 -U -9.857636 -V 1.681371 -T 17.461737
n -t 0.000000 -s 8 -x 140.000000 -y 280.000000 -U 0.780207 -V -9.969517 -T 25.322662
n -t 0.000000 -s 9 -x 24.000000 -y 310.000000 -U 5.182079 -V -8.552547 -T 32.414793
n -t 0.000000 -s 10 -x 57.000000 -y 340.000000 -U 9.996206 -V 0.275425 -T 42.021894
n -t 0.000000 -s 11 -x 98.000000 -y 400.000000 -U 0.773867 -V -9.970012 -T 38.015192
n -t 0.000000 -s 12 -x 60.000000 -y 70.000000 -U 9.239821 -V 3.824357 -T 40.448273
n -t 0.000000 -s 13 -x 20.000000 -y 200.000000 -U 9.857889 -V 1.679888 -T 41.348582
n -t 0.000000 -s 14 -x 0.000000 -y 95.000000 -U 5.735057 -V 8.192016 -T 6.724698
n -t 0.000000 -s 15 -x 50.000000 -y 80.000000 -U 9.637274 -V -2.668886 -T 13.358378
n -t 0.000000 -s 0 -x 50.000000 -y 100.000000 -U 5.854484 -V 8.107097 -T 24.985980
n -t 0.000000 -s 1 -x 50.000000 -y 200.000000 -U 9.367656 -V 3.499575 -T 46.595539
n -t 0.000000 -s 2 -x 50.000000 -y 20.000000 -U -0.520034 -V 9.986469 -T 33.112642
n -t 0.000000 -s 3 -x 90.000000 -y 212.000000 -U 9.888347 -V 1.490169 -T 22.685476
n -t 0.000000 -s 4 -x 6.000000 -y 59.000000 -U 1.690096 -V 9.856144 -T 31.829245
n -t 0.000000 -s 5 -x 109.000000 -y 80.000000 -U 7.049001 -V 7.093066 -T 19.635864
n -t 0.000000 -s 6 -x 70.000000 -y 20.000000 -U 9.826420 -V 1.855120 -T 20.018338
n -t 0.000000 -s 7 -x 300.000000 -y 40.000000 -U 2.525617 -V 9.675808 -T 25.625675
n -t 0.000000 -s 8 -x 140.000000 -y 280.000000 -U 8.685756 -V -4.955566 -T 35.793221
n -t 0.000000 -s 9 -x 24.000000 -y 310.000000 -U -1.025372 -V -9.947292 -T 14.806377
n -t 0.000000 -s 10 -x 57.000000 -y 340.000000 -U 9.887585 -V -1.495213 -T 42.103865
n -t 0.000000 -s 11 -x 98.000000 -y 400.000000 -U 9.110943 -V -4.121979 -T 31.449270
n -t 0.000000 -s 12 -x 60.000000 -y 70.000000 -U 0.238970 -V 9.997144 -T 32.510466
n -t 0.000000 -s 13 -x 20.000000 -y 200.000000 -U 9.216443 -V 3.880358 -T 20.033518
n -t 0.000000 -s 14 -x 0.000000 -y 95.000000 -U 8.398484 -V 5.428211 -T 49.034991
n -t 0.000000 -s 15 -x 50.000000 -y 80.000000 -U 9.191772 -V 3.938442 -T 24.784571
n -t 0.000000 -s 0 -x 50.000000 -y 100.000000 -U 9.052025 -V 4.249805 -T 40.742723
n -t 0.000000 -s 1 -x 50.000000 -y 200.000000 -U -2.474293 -V 9.689060 -T 15.832663
n -t 0.000000 -s 2 -x 50.000000 -y 20.000000 -U 0.718783 -V 9.974134 -T 25.163398
n -t 0.000000 -s 3 -x 90.000000 -y 212.000000 -U -8.697861 -V -4.934290 -T 8.474999
n -t 0.000000 -s 4 -x 6.000000 -y 59.000000 -U 9.961916 -V 0.871914 -T 30.402361
n -t 0.000000 -s 5 -x 109.000000 -y 80.000000 -U 9.762535 -V -2.166312 -T 32.000150
n -t 0.000000 -s 6 -x 70.000000 -y 20.000000 -U 9.915490 -V 1.297327 -T 25.731089
n -t 0.000000 -s 7 -x 300.000000 -y 40.000000 -U 9.774590 -V -2.111255 -T 18.543784
n -t 0.000000 -s 8 -x 140.000000 -y 280.000000 -U 9.847725 -V -1.738478 -T 20.662257
n -t 0.000000 -s 9 -x 24.000000 -y 310.000000 -U 9.769264 -V 2.135764 -T 27.961738
n -t 0.000000 -s 10 -x 57.000000 -y 340.000000 -U 9.926640 -V -1.209056 -T 29.315323
n -t 0.000000 -s 11 -x 98.000000 -y 400.000000 -U 5.622565 -V -8.269629 -T 43.714599
n -t 0.000000 -s 12 -x 60.000000 -y 70.000000 -U 9.267010 -V 3.757995 -T 21.943863
n -t 0.000000 -s 13 -x 20.000000 -y 200.000000 -U 3.943932 -V 9.189418 -T 19.715220
n -t 0.000000 -s 14 -x 0.000000 -y 95.000000 -U 9.941618 -V -1.078997 -T 43.704671
n -t 0.000000 -s 15 -x 50.000000 -y 80.000000 -U 5.137003 -V 8.579697 -T 13.104260
n -t 0.000000 -s 0 -x 50.000000 -y 100.000000 -U 9.032184 -V 4.291812 -T 19.471694
n -t 0.000000 -s 1 -x 50.000000 -y 200.000000 -U 0.649627 -V 9.978877 -T 2.970893
n -t 0.000000 -s 2 -x 50.000000 -y 20.000000 -U 3.412676 -V 9.399662 -T 8.547811
n -t 0.000000 -s 3 -x 90.000000 -y 212.000000 -U 4.084440 -V 9.127834 -T 15.948461
n -t 0.000000 -s 4 -x 6.000000 -y 59.000000 -U 9.639146 -V 2.662115 -T 20.291328
n -t 0.000000 -s 5 -x 109.000000 -y 80.000000 -U 8.638757 -V 5.037051 -T 29.497734
n -t 0.000000 -s 6 -x 70.000000 -y 20.000000 -U 7.021671 -V 7.120122 -T 20.461410
n -t 0.000000 -s 7 -x 300.000000 -y 40.000000 -U 7.575563 -V 6.527698 -T 12.150635
n -t 0.000000 -s 8 -x 140.000000 -y 280.000000 -U 2.311663 -V -9.729143 -T 14.354311
n -t 0.000000 -s 9 -x 24.000000 -y 310.000000 -U 9.924846 -V 1.223695 -T 44.947714
n -t 0.000000 -s 10 -x 57.000000 -y 340.000000 -U 4.817341 -V -8.763175 -T 38.424052
n -t 0.000000 -s 11 -x 98.000000 -y 400.000000 -U 7.103525 -V -7.038460 -T 53.555565
n -t 0.000000 -s 12 -x 60.000000 -y 70.000000 -U 9.998538 -V 0.170975 -T 21.849283
n -t 0.000000 -s 13 -x 20.000000 -y 200.000000 -U 6.874570 -V -7.262251 -T 10.805801
n -t 0.000000 -s 14 -x 0.000000 -y 95.000000 -U 5.348360 -V 8.449559 -T 18.726430
n -t 0.000000 -s 15 -x 50.000000 -y 80.000000 -U -0.196644 -V 9.998066 -T 13.187655
n -t 0.000000 -s 0 -x 50.000000 -y 100.000000 -U 8.706378 -V -4.919247 -T 20.174875
n -t 0.000000 -s 1 -x 50.000000 -y 200.000000 -U 8.497418 -V -5.271991 -T 36.215533
n -t 0.000000 -s 2 -x 50.000000 -y 20.000000 -U 1.342860 -V 9.909426 -T 31.572156
n -t 0.000000 -s 3 -x 90.000000 -y 212.000000 -U -7.479932 -V -6.637063 -T 10.233048
n -t 0.000000 -s 4 -x 6.000000 -y 59.000000 -U 9.491686 -V 3.147683 -T 51.580279
n -t 0.000000 -s 5 -x 109.000000 -y 80.000000 -U 9.875675 -V 1.571954 -T 35.752442
n -t 0.000000 -s 6 -x 70.000000 -y 20.000000 -U 9.929091 -V 1.188757 -T 34.912203
n -t 0.000000 -s 7 -x 300.000000 -y 40.000000 -U -7.549057 -V 6.558334 -T 28.742913
n -t 0.000000 -s 8 -x 140.000000 -y 280.000000 -U -1.073556 -V -9.942207 -T 21.026764
n -t 0.000000 -s 9 -x 24.000000 -y 310.000000 -U -0.149381 -V -9.998884 -T 29.814301
n -t 0.000000 -s 10 -x 57.000000 -y 340.000000 -U 9.320030 -V -3.624505 -T 26.003976
n -t 0.000000 -s 11 -x 98.000000 -y 400.000000 -U 9.631032 -V -2.691324 -T 28.012323
n -t 0.000000 -s 12 -x 60.000000 -y 70.000000 -U 3.451788 -V 9.385370 -T 24.743217
n -t 0.000000 -s 13 -x 20.000000 -y 200.000000 -U 9.794226 -V -2.018199 -T 34.046965
n -t 0.000000 -s 14 -x 0.000000 -y 95.000000 -U 6.615869 -V 7.498685 -T 24.770923
n -t 0.000000 -s 15 -x 50.000000 -y 80.000000 -U 6.221206 -V 7.829214 -T 22.962692
n -t 0.000000 -s 0 -x 50.000000 -y 100.000000 -U 8.145128 -V 5.801456 -T 12.234645
n -t 0.000000 -s 1 -x 50.000000 -y 200.000000 -U -0.058139 -V 9.999831 -T 3.132462
n -t 0.000000 -s 2 -x 50.000000 -y 20.000000 -U 9.962342 -V 0.867027 -T 28.107306
n -t 0.000000 -s 3 -x 90.000000 -y 212.000000 -U 2.997431 -V -9.540200 -T 21.386000
n -t 0.000000 -s 4 -x 6.000000 -y 59.000000 -U 0.132707 -V 9.999119 -T 21.295708
n -t 0.000000 -s 5 -x 109.000000 -y 80.000000 -U -3.048522 -V -9.523997 -T 8.118424
n -t 0.000000 -s 6 -x 70.000000 -y 20.000000 -U 8.658157 -V 5.003631 -T 27.345180
n -t 0.000000 -s 7 -x 300.000000 -y 40.000000 -U -7.357483 -V 6.772551 -T 13.415605
n -t 0.000000 -s 8 -x 140.000000 -y 280.000000 -U 8.343186 -V -5.512826 -T 2.420081
n -t 0.000000 -s 9 -x 24.000000 -y 310.000000 -U 9.340884 -V 3.570419 -T 14.778345
n -t 0.000000 -s 10 -x 57.000000 -y 340.000000 -U 9.522895 -V 3.051962 -T 18.872062
n -t 0.000000 -s 11 -x 98.000000 -y 400.000000 -U -9.160543 -V -4.010544 -T 9.389591
n -t 0.000000 -s 12 -x 60.000000 -y 70.000000 -U 8.670466 -V 4.982270 -T 35.274689
n -t 0.000000 -s 13 -x 20.000000 -y 200.000000 -U 9.813414 -V 1.922731 -T 34.554374
n -t 0.000000 -s 14 -x 0.000000 -y 95.000000 -U 6.218338 -V -7.831492 -T 7.348914
n -t 0.000000 -s 15 -x 50.000000 -y 80.000000 -U 9.168238 -V -3.992919 -T 18.045619
n -t 0.000000 -s 0 -x 50.000000 -y 100.000000 -U 8.008195 -V 5.989058 -T 46.306926
n -t 0.000000 -s 1 -x 50.000000 -y 200.000000 -U 9.638081 -V 2.665968 -T 29.486881
n -t 0.000000 -s 2 -x 50.000000 -y 20.000000 -U 5.905189 -V 8.070238 -T 37.356247
n -t 0.000000 -s 3 -x 90.000000 -y 212.000000 -U 8.535884 -V 5.209481 -T 20.244070
n -t 0.000000 -s 4 -x 6.000000 -y 59.000000 -U 9.156296 -V 4.020230 -T 49.678265
n -t 0.000000 -s 5 -x 109.000000 -y 80.000000 -U 6.289329 -V 7.774596 -T 37.160088
n -t 0.000000 -s 6 -x 70.000000 -y 20.000000 -U 9.136501 -V 4.065014 -T 17.046560
n -t 0.000000 -s 7 -x 300.000000 -y 40.000000 -U 5.790990 -V 8.152572 -T 28.678372
n -t 0.000000 -s 8 -x 140.000000 -y 280.000000 -U 8.145881 -V 5.800398 -T 13.282413
n -t 0.000000 -s 9 -x 24.000000 -y 310.000000 -U 0.296003 -V -9.995618 -T 30.280082
n -t 0.000000 -s 10 -x 57.000000 -y 340.000000 -U -1.101434 -V -9.939157 -T 21.626340
n -t 0.000000 -s 11 -x 98.000000 -y 400.000000 -U 4.839506 -V -8.750953 -T 19.993162
n -t 0.000000 -s 12 -x 60.000000 -y 70.000000 -U 9.994075 -V -0.344199 -T 26.559178
n -t 0.000000 -s 13 -x 20.000000 -y 200.000000 -U 9.909760 -V -1.340397 -T 3.828225
n -t 0.000000 -s 14 -x 0.000000 -y 95.000000 -U 9.496416 -V 3.133383 -T 47.061456
n -t 0.000000 -s 15 -x 50.000000 -y 80.000000 -U 8.096292 -V 5.869418 -T 32.603415
n -t 0.000000 -s 0 -x 50.000000 -y 100.000000 -U 9.347330 -V 3.553507 -T 48.001020
n -t 0.000000 -s 1 -x 50.000000 -y 200.000000 -U 9.480907 -V 3.179999 -T 34.676435
n -t 0.000000 -s 2 -x 50.000000 -y 20.000000 -U 7.906784 -V 6.122317 -T 45.082781
n -t 0.000000 -s 3 -x 90.000000 -y 212.000000 -U 9.078524 -V -4.192899 -T 25.645104
n -t 0.000000 -s 4 -x 6.000000 -y 59.000000 -U 7.568254 -V 6.536171 -T 44.163588
n -t 0.000000 -s 5 -x 109.000000 -y 80.000000 -U 9.223781 -V 3.862882 -T 33.541877
n -t 0.000000 -s 6 -x 70.000000 -y 20.000000 -U 6.667003 -V 7.453259 -T 29.761209
n -t 0.000000 -s 7 -x 300.000000 -y 40.000000 -U -0.569224 -V 9.983786 -T 10.183284
n -t 0.000000 -s 8 -x 140.000000 -y 280.000000 -U 7.255479 -V -6.881717 -T 16.813004
n -t 0.000000 -s 9 -x 24.000000 -y 310.000000 -U 8.863201 -V 4.630731 -T 18.562407
n -t 0.000000 -s 10 -x 57.000000 -y 340.000000 -U 0.825618 -V -9.965859 -T 18.895040
n -t 0.000000 -s 11 -x 98.000000 -y 400.000000 -U 8.332525 -V -5.528926 -T 38.128172
n -t 0.000000 -s 12 -x 60.000000 -y 70.000000 -U 5.010470 -V 8.654201 -T 26.136148
n -t 0.000000 -s 13 -x 20.000000 -y 200.000000 -U 3.424493 -V -9.395363 -T 2.538078
n -t 0.000000 -s 14 -x 0.000000 -y 95.000000 -U 8.636245 -V 5.041357 -T 31.490439
n -t 0.000000 -s 15 -x 50.000000 -y 80.000000 -U 0.799572 -V 9.967983 -T 19.682040
n -t 0.000000 -s 0 -x 50.000000 -y 100.000000 -U 9.814884 -V 1.915216 -T 36.850807
n -t 0.000000 -s 1 -x 50.000000 -y 200.000000 -U 3.665286 -V -9.304068 -T 17.632330
n -t 0.000000 -s 2 -x 50.000000 -y 20.000000 -U 9.756658 -V 2.192629 -T 16.829604
n -t 0.000000 -s 3 -x 90.000000 -y 212.000000 -U 9.999387 -V 0.110723 -T 33.054561
n -t 0.000000 -s 4 -x 6.000000 -y 59.000000 -U 9.985878 -V -0.531261 -T 23.920946
n -t 0.000000 -s 5 -x 109.000000 -y 80.000000 -U -2.955114 -V 9.553392 -T 26.155420
n -t 0.000000 -s 6 -x 70.000000 -y 20.000000 -U 4.405227 -V 8.977415 -T 33.859547
n -t 0.000000 -s 7 -x 300.000000 -y 40.000000 -U -6.441207 -V 7.649239 -T 10.876359
n -t 0.000000 -s 8 -x 140.000000 -y 280.000000 -U 4.767820 -V -8.790216 -T 10.716620
n -t 0.000000 -s 9 -x 24.000000 -y 310.000000 -U 9.979083 -V 0.646449 -T 37.300902
n -t 0.000000 -s 10 -x 57.000000 -y 340.000000 -U 6.129839 -V -7.900954 -T 39.491066
n -t 0.000000 -s 11 -x 98.000000 -y 400.000000 -U 5.879031 -V -8.089313 -T 49.002868
n -t 0.000000 -s 12 -x 60.000000 -y 70.000000 -U 5.869728 -V 8.096067 -T 13.793943
n -t 0.000000 -s 13 -x 20.000000 -y 200.000000 -U 9.994998 -V -0.316258 -T 28.014840
n -t 0.000000 -s 14 -x 0.000000 -y 95.000000 -U 9.551320 -V -2.961805 -T 11.948458
n -t 0.000000 -s 15 -x 50.000000 -y 80.000000 -U 9.999854 -V -0.054070 -T 30.263118
n -t 0.000000 -s 0 -x 50.000000 -y 100.000000 -U 9.059290 -V 4.234296 -T 30.092931
n -t 0.000000 -s 1 -x 50.000000 -y 200.000000 -U 8.622192 -V -5.065354 -T 35.919250
n -t 0.000000 -s 2 -x 50.000000 -y 20.000000 -U 9.987743 -V -0.494974 -T 29.048262
n -t 0.000000 -s 3 -x 90.000000 -y 212.000000 -U 1.032225 -V 9.946583 -T 17.514542
n -t 0.000000 -s 4 -x 6.000000 -y 59.000000 -U 9.986236 -V 0.524491 -T 28.046279
n -t 0.000000 -s 5 -x 109.000000 -y 80.000000 -U -9.965535 -V 0.829525 -T 5.402432
n -t 0.000000 -s 6 -x 70.000000 -y 20.000000 -U 6.153868 -V 7.882252 -T 45.456548
n -t 0.000000 -s 7 -x 300.000000 -y 40.000000 -U -9.192420 -V 3.936931 -T 20.682915
n -t 0.000000 -s 8 -x 140.000000 -y 280.000000 -U -4.230260 -V -9.061176 -T 25.119064
n -t 0.000000 -s 9 -x 24.000000 -y 310.000000 -U 7.762070 -V -6.304781 -T 20.764340
n -t 0.000000 -s 10 -x 57.000000 -y 340.000000 -U 8.189654 -V -5.738430 -T 37.002549
n -t 0.000000 -s 11 -x 98.000000 -y 400.000000 -U -1.748949 -V -9.845871 -T 27.383375
n -t 0.000000 -s 12 -x 60.000000 -y 70.000000 -U 9.946379 -V 1.034188 -T 20.522335
n -t 0.000000 -s 13 -x 20.000000 -y 200.000000 -U -1.823278 -V 9.832378 -T 10.320615
n -t 0.000000 -s 14 -x 0.000000 -y 95.000000 -U 9.998656 -V -0.163935 -T 13.785490
n -t 0.000000 -s 15 -x 50.000000 -y 80.000000 -U 9.999455 -V 0.104435 -T 30.294113
n -t 0.000000 -s 0 -x 50.000000 -y 100.000000 -U 7.741615 -V -6.329881 -T 15.099572
n -t 0.000000 -s 1 -x 50.000000 -y 200.000000 -U 9.995645 -V 0.295087 -T 34.035840
n -t 0.000000 -s 2 -x 50.000000 -y 20.000000 -U 7.139150 -V 7.002324 -T 28.277255
n -t 0.000000 -s 3 -x 90.000000 -y 212.000000 -U -2.482441 -V -9.686975 -T 18.493402
n -t 0.000000 -s 4 -x 6.000000 -y 59.000000 -U 5.795975 -V 8.149029 -T 40.345178
n -t 0.000000 -s 5 -x 109.000000 -y 80.000000 -U 6.772223 -V -7.357785 -T 5.724654
n -t 0.000000 -s 6 -x 70.000000 -y 20.000000 -U 7.514941 -V 6.597398 -T 29.969706
n -t 0.000000 -s 7 -x 300.000000 -y 40.000000 -U -9.789918 -V 2.038997 -T 23.617417
n -t 0.000000 -s 8 -x 140.000000 -y 280.000000 -U -5.700056 -V -8.216408 -T 16.871493
n -t 0.000000 -s 9 -x 24.000000 -y 310.000000 -U 9.249576 -V -3.800703 -T 13.910244
n -t 0.000000 -s 10 -x 57.000000 -y 340.000000 -U -3.583382 -V -9.335918 -T 13.959722
n -t 0.000000 -s 11 -x 98.000000 -y 400.000000 -U 6.871226 -V -7.265415 -T 54.331186
n -t 0.000000 -s 12 -x 60.000000 -y 70.000000 -U -1.174193 -V 9.930824 -T 20.906013
n -t 0.000000 -s 13 -x 20.000000 -y 200.000000 -U 9.166317 -V -3.997329 -T 32.928742
n -t 0.000000 -s 14 -x 0.000000 -y 95.000000 -U 8.832878 -V 4.688311 -T 48.765243
n -t 0.000000 -s 15 -x 50.000000 -y 80.000000 -U 9.983602 -V -0.572449 -T 44.126733
n -t 0.000000 -s 0 -x 50.000000 -y 100.000000 -U -1.672812 -V 9.859092 -T 22.441735
n -t 0.000000 -s 1 -x 50.000000 -y 200.000000 -U 5.937730 -V 8.046326 -T 20.016961
n -t 0.000000 -s 2 -x 50.000000 -y 20.000000 -U 7.557048 -V 6.549124 -T 57.169264
n -t 0.000000 -s 3 -x 90.000000 -y 212.000000 -U -5.088399 -V -8.608611 -T 11.517546
n -t 0.000000 -s 4 -x 6.000000 -y 59.000000 -U 9.996920 -V -0.248166 -T 32.988809
n -t 0.000000 -s 5 -x 109.000000 -y 80.000000 -U -7.359060 -V -6.770837 -T 11.565473
n -t 0.000000 -s 6 -x 70.000000 -y 20.000000 -U -0.794970 -V 9.968351 -T 27.364890
n -t 0.000000 -s 7 -x 300.000000 -y 40.000000 -U -8.636376 -V 5.041132 -T 34.597160
n -t 0.000000 -s 8 -x 140.000000 -y 280.000000 -U 8.936640 -V -4.487367 -T 36.060158
n -t 0.000000 -s 9 -x 24.000000 -y 310.000000 -U 8.444864 -V -5.355769 -T 46.400178
n -t 0.000000 -s 10 -x 57.000000 -y 340.000000 -U 9.621558 -V -2.725000 -T 31.128779
n -t 0.000000 -s 11 -x 98.000000 -y 400.000000 -U 9.117325 -V -4.107845 -T 31.828594
n -t 0.000000 -s 12 -x 60.000000 -y 70.000000 -U 4.053038 -V 9.141821 -T 27.179891
n -t 0.000000 -s 13 -x 20.000000 -y 200.000000 -U 8.785991 -V -4.775600 -T 24.365532
n -t 0.000000 -s 14 -x 0.000000 -y 95.000000 -U 9.143411 -V -4.049448 -T 18.724943
n -t 0.000000 -s 15 -x 50.000000 -y 80.000000 -U 7.263739 -V 6.872998 -T 38.311073
+ -t 0.500000000 -s 0 -d -1 -p udp -e 500 -c 2 -a 0 -i 0 -k AGT 
- -t 0.500000000 -s 0 -d -1 -p udp -e 500 -c 2 -a 0 -i 0 -k AGT
h -t 0.500000000 -s 0 -d -1 -p udp -e 500 -c 2 -a 0 -i 0 -k AGT
+ -t 0.500000000 -s 0 -d -1 -p udp -e 500 -c 2 -a 0 -i 1 -k AGT 
- -t 0.500000000 -s 0 -d -1 -p udp -e 500 -c 2 -a 0 -i 1 -k AGT
h -t 0.500000000 -s 0 -d -1 -p udp -e 500 -c 2 -a 0 -i 1 -k AGT
+ -t 0.500000000 -s 0 -d -1 -p AODV -e 48 -c 2 -a 0 -i 0 -k RTR 
- -t 0.500000000 -s 0 -d -1 -p AODV -e 48 -c 2 -a 0 -i 0 -k RTR
h -t 0.500000000 -s 0 -d -1 -p AODV -e 48 -c 2 -a 0 -i 0 -k RTR
+ -t 0.500000000 -s 0 -d -1 -p AODV -e 48 -c 2 -a 0 -i 0 -k RTR 
- -t 0.500000000 -s 0 -d -1 -p AODV -e 48 -c 2 -a 0 -i 0 -k RTR
h -t 0.500000000 -s 0 -d -1 -p AODV -e 48 -c 2 -a 0 -i 0 -k RTR
r -t 0.501408073 -s 15 -d -1 -p AODV -e 48 -c 2 -a 0 -i 0 -k RTR
r -t 0.501408110 -s 12 -d -1 -p AODV -e 48 -c 2 -a 0 -i 0 -k RTR
r -t 0.501408154 -s 14 -d -1 -p AODV -e 48 -c 2 -a 0 -i 0 -k RTR
r -t 0.501408199 -s 4 -d -1 -p AODV -e 48 -c 2 -a 0 -i 0 -k RTR
r -t 0.501408210 -s 5 -d -1 -p AODV -e 48 -c 2 -a 0 -i 0 -k RTR
r -t 0.501408273 -s 2 -d -1 -p AODV -e 48 -c 2 -a 0 -i 0 -k RTR
r -t 0.501408275 -s 6 -d -1 -p AODV -e 48 -c 2 -a 0 -i 0 -k RTR
r -t 0.501408320 -s 13 -d -1 -p AODV -e 48 -c 2 -a 0 -i 0 -k RTR
r -t 0.501408331 -s 1 -d -1 -p AODV -e 48 -c 2 -a 0 -i 0 -k RTR
+ -t 0.501408331 -s 1 -d 0 -p AODV -e 44 -c 2 -a 0 -i 0 -k RTR 
- -t 0.501408331 -s 1 -d 0 -p AODV -e 44 -c 2 -a 0 -i 0 -k RTR
h -t 0.501408331 -s 1 -d 0 -p AODV -e 44 -c 2 -a 0 -i 0 -k RTR
r -t 0.501408366 -s 3 -d -1 -p AODV -e 48 -c 2 -a 0 -i 0 -k RTR
r -t 0.501408658 -s 8 -d -1 -p AODV -e 48 -c 2 -a 0 -i 0 -k RTR
r -t 0.501408678 -s 9 -d -1 -p AODV -e 48 -c 2 -a 0 -i 0 -k RTR
r -t 0.501408780 -s 10 -d -1 -p AODV -e 48 -c 2 -a 0 -i 0 -k RTR
+ -t 0.501550120 -s 15 -d -1 -p AODV -e 48 -c 2 -a 0 -i 0 -k RTR 
- -t 0.501550120 -s 15 -d -1 -p AODV -e 48 -c 2 -a 0 -i 0 -k RTR
h -t 0.501550120 -s 15 -d -1 -p AODV -e 48 -c 2 -a 0 -i 0 -k RTR
+ -t 0.501836726 -s 10 -d -1 -p AODV -e 48 -c 2 -a 0 -i 0 -k RTR 
- -t 0.501836726 -s 10 -d -1 -p AODV -e 48 -c 2 -a 0 -i 0 -k RTR
h -t 0.501836726 -s 10 -d -1 -p AODV -e 48 -c 2 -a 0 -i 0 -k RTR
+ -t 0.502289337 -s 12 -d -1 -p AODV -e 48 -c 2 -a 0 -i 0 -k RTR 
- -t 0.502289337 -s 12 -d -1 -p AODV -e 48 -c 2 -a 0 -i 0 -k RTR
h -t 0.502289337 -s 12 -d -1 -p AODV -e 48 -c 2 -a 0 -i 0 -k RTR
r -t 0.502346073 -s 15 -d -1 -p AODV -e 48 -c 2 -a 0 -i 0 -k RTR
r -t 0.502346110 -s 12 -d -1 -p AODV -e 48 -c 2 -a 0 -i 0 -k RTR
r -t 0.502346154 -s 14 -d -1 -p AODV -e 48 -c 2 -a 0 -i 0 -k RTR
r -t 0.502346199 -s 4 -d -1 -p AODV -e 48 -c 2 -a 0 -i 0 -k RTR
r -t 0.502346210 -s 5 -d -1 -p AODV -e 48 -c 2 -a 0 -i 0 -k RTR
r -t 0.502346273 -s 2 -d -1 -p AODV -e 48 -c 2 -a 0 -i 0 -k RTR
+ -t 0.502346273 -s 2 -d 0 -p AODV -e 44 -c 2 -a 0 -i 0 -k RTR 
- -t 0.502346273 -s 2 -d 0 -p AODV -e 44 -c 2 -a 0 -i 0 -k RTR
h -t 0.502346273 -s 2 -d 0 -p AODV -e 44 -c 2 -a 0 -i 0 -k RTR
r -t 0.502346275 -s 6 -d -1 -p AODV -e 48 -c 2 -a 0 -i 0 -k RTR
r -t 0.502346320 -s 13 -d -1 -p AODV -e 48 -c 2 -a 0 -i 0 -k RTR
r -t 0.502346331 -s 1 -d -1 -p AODV -e 48 -c 2 -a 0 -i 0 -k RTR
r -t 0.502346365 -s 3 -d -1 -p AODV -e 48 -c 2 -a 0 -i 0 -k RTR
r -t 0.502346658 -s 8 -d -1 -p AODV -e 48 -c 2 -a 0 -i 0 -k RTR
r -t 0.502346678 -s 9 -d -1 -p AODV -e 48 -c 2 -a 0 -i 0 -k RTR
r -t 0.502346780 -s 10 -d -1 -p AODV -e 48 -c 2 -a 0 -i 0 -k RTR
+ -t 0.503050132 -s 9 -d -1 -p AODV -e 48 -c 2 -a 0 -i 0 -k RTR 
- -t 0.503050132 -s 9 -d -1 -p AODV -e 48 -c 2 -a 0 -i 0 -k RTR
h -t 0.503050132 -s 9 -d -1 -p AODV -e 48 -c 2 -a 0 -i 0 -k RTR
+ -t 0.503287462 -s 15 -d -1 -p AODV -e 48 -c 2 -a 0 -i 0 -k RTR 
- -t 0.503287462 -s 15 -d -1 -p AODV -e 48 -c 2 -a 0 -i 0 -k RTR
h -t 0.503287462 -s 15 -d -1 -p AODV -e 48 -c 2 -a 0 -i 0 -k RTR
+ -t 0.503754293 -s 6 -d -1 -p AODV -e 48 -c 2 -a 0 -i 0 -k RTR 
- -t 0.503754293 -s 6 -d -1 -p AODV -e 48 -c 2 -a 0 -i 0 -k RTR
h -t 0.503754293 -s 6 -d -1 -p AODV -e 48 -c 2 -a 0 -i 0 -k RTR
r -t 0.504152486 -s 15 -d -1 -p AODV -e 48 -c 2 -a 0 -i 0 -k RTR
r -t 0.504152556 -s 0 -d -1 -p AODV -e 48 -c 2 -a 0 -i 0 -k RTR
r -t 0.504152590 -s 5 -d -1 -p AODV -e 48 -c 2 -a 0 -i 0 -k RTR
r -t 0.504152613 -s 6 -d -1 -p AODV -e 48 -c 2 -a 0 -i 0 -k RTR
r -t 0.504152619 -s 2 -d -1 -p AODV -e 48 -c 2 -a 0 -i 0 -k RTR
r -t 0.504152624 -s 4 -d -1 -p AODV -e 48 -c 2 -a 0 -i 0 -k RTR
+ -t 0.504499156 -s 3 -d -1 -p AODV -e 48 -c 2 -a 0 -i 0 -k RTR 
- -t 0.504499156 -s 3 -d -1 -p AODV -e 48 -c 2 -a 0 -i 0 -k RTR
h -t 0.504499156 -s 3 -d -1 -p AODV -e 48 -c 2 -a 0 -i 0 -k RTR
+ -t 0.504518273 -s 9 -d -1 -p AODV -e 48 -c 2 -a 0 -i 0 -k RTR 
- -t 0.504518273 -s 9 -d -1 -p AODV -e 48 -c 2 -a 0 -i 0 -k RTR
h -t 0.504518273 -s 9 -d -1 -p AODV -e 48 -c 2 -a 0 -i 0 -k RTR
+ -t 0.504537827 -s 5 -d -1 -p AODV -e 48 -c 2 -a 0 -i 0 -k RTR 
- -t 0.504537827 -s 5 -d -1 -p AODV -e 48 -c 2 -a 0 -i 0 -k RTR
h -t 0.504537827 -s 5 -d -1 -p AODV -e 48 -c 2 -a 0 -i 0 -k RTR
+ -t 0.504759036 -s 10 -d -1 -p AODV -e 48 -c 2 -a 0 -i 0 -k RTR 
- -t 0.504759036 -s 10 -d -1 -p AODV -e 48 -c 2 -a 0 -i 0 -k RTR
h -t 0.504759036 -s 10 -d -1 -p AODV -e 48 -c 2 -a 0 -i 0 -k RTR
+ -t 0.504927079 -s 4 -d -1 -p AODV -e 48 -c 2 -a 0 -i 0 -k RTR 
- -t 0.504927079 -s 4 -d -1 -p AODV -e 48 -c 2 -a 0 -i 0 -k RTR
h -t 0.504927079 -s 4 -d -1 -p AODV -e 48 -c 2 -a 0 -i 0 -k RTR
r -t 0.505395527 -s 2 -d -1 -p AODV -e 48 -c 2 -a 0 -i 0 -k RTR
r -t 0.505395642 -s 12 -d -1 -p AODV -e 48 -c 2 -a 0 -i 0 -k RTR
r -t 0.505395676 -s 15 -d -1 -p AODV -e 48 -c 2 -a 0 -i 0 -k RTR
r -t 0.505395683 -s 5 -d -1 -p AODV -e 48 -c 2 -a 0 -i 0 -k RTR
r -t 0.505395700 -s 4 -d -1 -p AODV -e 48 -c 2 -a 0 -i 0 -k RTR
r -t 0.505395750 -s 0 -d -1 -p AODV -e 48 -c 2 -a 0 -i 0 -k RTR
r -t 0.505395788 -s 14 -d -1 -p AODV -e 48 -c 2 -a 0 -i 0 -k RTR
r -t 0.505396069 -s 13 -d -1 -p AODV -e 48 -c 2 -a 0 -i 0 -k RTR
r -t 0.505396074 -s 1 -d -1 -p AODV -e 48 -c 2 -a 0 -i 0 -k RTR
r -t 0.505396086 -s 3 -d -1 -p AODV -e 48 -c 2 -a 0 -i 0 -k RTR
r -t 0.505396230 -s 7 -d -1 -p AODV -e 48 -c 2 -a 0 -i 0 -k RTR
+ -t 0.505819888 -s 14 -d -1 -p AODV -e 48 -c 2 -a 0 -i 0 -k RTR 
- -t 0.505819888 -s 14 -d -1 -p AODV -e 48 -c 2 -a 0 -i 0 -k RTR
h -t 0.505819888 -s 14 -d -1 -p AODV -e 48 -c 2 -a 0 -i 0 -k RTR
+ -t 0.505833564 -s 14 -d -1 -p AODV -e 48 -c 2 -a 0 -i 0 -k RTR 
- -t 0.505833564 -s 14 -d -1 -p AODV -e 48 -c 2 -a 0 -i 0 -k RTR
h -t 0.505833564 -s 14 -d -1 -p AODV -e 48 -c 2 -a 0 -i 0 -k RTR
r -t 0.506353717 -s 12 -d -1 -p AODV -e 48 -c 2 -a 0 -i 0 -k RTR
r -t 0.506353750 -s 0 -d -1 -p AODV -e 48 -c 2 -a 0 -i 0 -k RTR
r -t 0.506353840 -s 4 -d -1 -p AODV -e 48 -c 2 -a 0 -i 0 -k RTR
r -t 0.506353843 -s 14 -d -1 -p AODV -e 48 -c 2 -a 0 -i 0 -k RTR
r -t 0.506353850 -s 5 -d -1 -p AODV -e 48 -c 2 -a 0 -i 0 -k RTR
r -t 0.506353877 -s 2 -d -1 -p AODV -e 48 -c 2 -a 0 -i 0 -k RTR
r -t 0.506353878 -s 6 -d -1 -p AODV -e 48 -c 2 -a 0 -i 0 -k RTR
r -t 0.506354069 -s 13 -d -1 -p AODV -e 48 -c 2 -a 0 -i 0 -k RTR
r -t 0.506354078 -s 1 -d -1 -p AODV -e 48 -c 2 -a 0 -i 0 -k RTR
r -t 0.506354105 -s 3 -d -1 -p AODV -e 48 -c 2 -a 0 -i 0 -k RTR
r -t 0.506354391 -s 8 -d -1 -p AODV -e 48 -c 2 -a 0 -i 0 -k RTR
r -t 0.506354427 -s 9 -d -1 -p AODV -e 48 -c 2 -a 0 -i 0 -k RTR
r -t 0.506354494 -s 7 -d -1 -p AODV -e 48 -c 2 -a 0 -i 0 -k RTR
+ -t 0.506433066 -s 5 -d -1 -p AODV -e 48 -c 2 -a 0 -i 0 -k RTR 
- -t 0.506433066 -s 5 -d -1 -p AODV -e 48 -c 2 -a 0 -i 0 -k RTR
h -t 0.506433066 -s 5 -d -1 -p AODV -e 48 -c 2 -a 0 -i 0 -k RTR
+ -t 0.507007479 -s 13 -d -1 -p AODV -e 48 -c 2 -a 0 -i 0 -k RTR 
- -t 0.507007479 -s 13 -d -1 -p AODV -e 48 -c 2 -a 0 -i 0 -k RTR