D 0.005086994 _14_ MAC  COL 0 AODV 106 [0 ffffffff 21 800] [energy 89.998131 ei 0.001 es 0.000 et 0.000 er 0.001] ------- [33:255 -1:255 29 0] [0x2 2 3 [2 0] [13 8]] (REQUEST)
D 0.005087038 _32_ MAC  COL 0 AODV 106 [0 ffffffff 21 800] [energy 89.998131 ei 0.001 es 0.000 et 0.000 er 0.001] ------- [33:255 -1:255 29 0] [0x2 2 3 [2 0] [13 8]] (REQUEST)
D 0.005087128 _2_ MAC  COL 0 AODV 106 [0 ffffffff 21 800] [energy 89.998131 ei 0.001 es 0.000 et 0.000 er 0.001] ------- [33:255 -1:255 29 0] [0x2 2 3 [2 0] [13 8]] (REQUEST)
D 0.005087146 _21_ MAC  COL 0 AODV 106 [0 ffffffff 21 800] [energy 89.997283 ei 0.001 es 0.000 et 0.001 er 0.001] ------- [33:255 -1:255 29 0] [0x2 2 3 [2 0] [13 8]] (REQUEST)
D 0.005087164 _1_ MAC  COL 0 AODV 106 [0 ffffffff 1b 800] [energy 89.998130 ei 0.001 es 0.000 et 0.000 er 0.001] ------- [27:255 -1:255 29 0] [0x2 2 1 [0 0] [13 4]] (REQUEST)
D 0.005087196 _13_ MAC  COL 0 AODV 106 [0 ffffffff 1b 800] [energy 89.995586 ei 0.001 es 0.000 et 0.003 er 0.000] ------- [27:255 -1:255 29 0] [0x2 2 1 [0 0] [13 4]] (REQUEST)
D 0.005087221 _43_ MAC  COL 0 AODV 106 [0 ffffffff 21 800] [energy 89.998131 ei 0.001 es 0.000 et 0.000 er 0.001] ------- [33:255 -1:255 29 0] [0x2 2 3 [2 0] [13 8]] (REQUEST)
D 0.005087224 _0_ MAC  COL 0 AODV 106 [0 ffffffff 1b 800] [energy 89.997442 ei 0.001 es 0.000 et 0.001 er 0.001] ------- [27:255 -1:255 29 0] [0x2 2 1 [0 0] [13 4]] (REQUEST)
D 0.005087256 _40_ MAC  COL 0 AODV 106 [0 ffffffff 21 800] [energy 89.998130 ei 0.001 es 0.000 et 0.000 er 0.001] ------- [33:255 -1:255 29 0] [0x2 2 3 [2 0] [13 8]] (REQUEST)
D 0.005087274 _19_ MAC  COL 0 AODV 106 [0 ffffffff 21 800] [energy 89.998130 ei 0.001 es 0.000 et 0.000 er 0.001] ------- [33:255 -1:255 29 0] [0x2 2 3 [2 0] [13 8]] (REQUEST)
D 0.005087288 _18_ MAC  COL 0 AODV 106 [0 ffffffff 1b 800] [energy 89.998130 ei 0.001 es 0.000 et 0.000 er 0.001] ------- [27:255 -1:255 29 0] [0x2 2 1 [0 0] [13 4]] (REQUEST)
D 0.005087306 _26_ MAC  COL 0 AODV 106 [0 ffffffff 1b 800] [energy 89.998131 ei 0.001 es 0.000 et 0.000 er 0.001] ------- [27:255 -1:255 29 0] [0x2 2 1 [0 0] [13 4]] (REQUEST)
D 0.005087317 _37_ MAC  COL 0 AODV 106 [0 ffffffff 21 800] [energy 89.998131 ei 0.001 es 0.000 et 0.000 er 0.001] ------- [33:255 -1:255 29 0] [0x2 2 3 [2 0] [13 8]] (REQUEST)
D 0.005087334 _50_ MAC  COL 0 AODV 106 [0 ffffffff 1b 800] [energy 89.998130 ei 0.001 es 0.000 et 0.000 er 0.001] ------- [27:255 -1:255 29 0] [0x2 2 1 [0 0] [13 4]] (REQUEST)
D 0.005087334 _16_ MAC  COL 0 AODV 106 [0 ffffffff 1b 800] [energy 89.998130 ei 0.001 es 0.000 et 0.000 er 0.001] ------- [27:255 -1:255 29 0] [0x2 2 1 [0 0] [13 4]] (REQUEST)
D 0.005087345 _22_ MAC  COL 0 AODV 106 [0 ffffffff 21 800] [energy 89.998130 ei 0.001 es 0.000 et 0.000 er 0.001] ------- [33:255 -1:255 29 0] [0x2 2 3 [2 0] [13 8]] (REQUEST)
D 0.005087365 _12_ MAC  COL 0 AODV 106 [0 ffffffff 1b 800] [energy 89.998130 ei 0.001 es 0.000 et 0.000 er 0.001] ------- [27:255 -1:255 29 0] [0x2 2 1 [0 0] [13 4]] (REQUEST)
D 0.005087374 _17_ MAC  COL 0 AODV 106 [0 ffffffff 21 800] [energy 89.998130 ei 0.001 es 0.000 et 0.000 er 0.001] ------- [33:255 -1:255 29 0] [0x2 2 3 [2 0] [13 8]] (REQUEST)
D 0.005087377 _43_ MAC  COL 0 AODV 106 [0 ffffffff 1b 800] [energy 89.998131 ei 0.001 es 0.000 et 0.000 er 0.001] ------- [27:255 -1:255 29 0] [0x2 2 1 [0 0] [13 4]] (REQUEST)
D 0.005087385 _2_ MAC  COL 0 AODV 106 [0 ffffffff 1b 800] [energy 89.998131 ei 0.001 es 0.000 et 0.000 er 0.001] ------- [27:255 -1:255 29 0] [0x2 2 1 [0 0] [13 4]] (REQUEST)
D 0.005087397 _39_ MAC  COL 0 AODV 106 [0 ffffffff 1b 800] [energy 89.998131 ei 0.001 es 0.000 et 0.000 er 0.001] ------- [27:255 -1:255 29 0] [0x2 2 1 [0 0] [13 4]] (REQUEST)
D 0.005087402 _37_ MAC  COL 0 AODV 106 [0 ffffffff f 800] [energy 89.998131 ei 0.001 es 0.000 et 0.000 er 0.001] ------- [15:255 -1:255 29 0] [0x2 2 4 [3 0] [13 10]] (REQUEST)
D 0.005087404 _21_ MAC  COL 0 AODV 106 [0 ffffffff 1b 800] [energy 89.997283 ei 0.001 es 0.000 et 0.001 er 0.001] ------- [27:255 -1:255 29 0] [0x2 2 1 [0 0] [13 4]] (REQUEST)
D 0.005087427 _8_ MAC  COL 0 AODV 106 [0 ffffffff 1b 800] [energy 89.998130 ei 0.001 es 0.000 et 0.000 er 0.001] ------- [27:255 -1:255 29 0] [0x2 2 1 [0 0] [13 4]] (REQUEST)
D 0.005087428 _10_ MAC  COL 0 AODV 106 [0 ffffffff 1b 800] [energy 89.998130 ei 0.001 es 0.000 et 0.000 er 0.001] ------- [27:255 -1:255 29 0] [0x2 2 1 [0 0] [13 4]] (REQUEST)
D 0.005087458 _17_ MAC  COL 0 AODV 106 [0 ffffffff 1b 800] [energy 89.998130 ei 0.001 es 0.000 et 0.000 er 0.001] ------- [27:255 -1:255 29 0] [0x2 2 1 [0 0] [13 4]] (REQUEST)
D 0.005087485 _46_ MAC  COL 0 AODV 106 [0 ffffffff 1b 800] [energy 89.998131 ei 0.001 es 0.000 et 0.000 er 0.001] ------- [27:255 -1:255 29 0] [0x2 2 1 [0 0] [13 4]] (REQUEST)
D 0.005087488 _22_ MAC  COL 0 AODV 106 [0 ffffffff f 800] [energy 89.998130 ei 0.001 es 0.000 et 0.000 er 0.001] ------- [15:255 -1:255 29 0] [0x2 2 4 [3 0] [13 10]] (REQUEST)
D 0.005087506 _24_ MAC  COL 0 AODV 106 [0 ffffffff 1b 800] [energy 89.998130 ei 0.001 es 0.000 et 0.000 er 0.001] ------- [27:255 -1:255 29 0] [0x2 2 1 [0 0] [13 4]] (REQUEST)
D 0.005087514 _52_ MAC  COL 0 AODV 106 [0 ffffffff 1b 800] [energy 89.998130 ei 0.001 es 0.000 et 0.000 er 0.001] ------- [27:255 -1:255 29 0] [0x2 2 1 [0 0] [13 4]] (REQUEST)
D 0.005087539 _1_ MAC  COL 0 AODV 106 [0 ffffffff 21 800] [energy 89.998130 ei 0.001 es 0.000 et 0.000 er 0.001] ------- [33:255 -1:255 29 0] [0x2 2 3 [2 0] [13 8]] (REQUEST)
D 0.005087540 _23_ MAC  COL 0 AODV 106 [0 ffffffff 1b 800] [energy 89.998130 ei 0.001 es 0.000 et 0.000 er 0.001] ------- [27:255 -1:255 29 0] [0x2 2 1 [0 0] [13 4]] (REQUEST)
D 0.005087544 _11_ MAC  COL 0 AODV 106 [0 ffffffff 1b 800] [energy 89.998130 ei 0.001 es 0.000 et 0.000 er 0.001] ------- [27:255 -1:255 29 0] [0x2 2 1 [0 0] [13 4]] (REQUEST)
D 0.005087554 _19_ MAC  COL 0 AODV 106 [0 ffffffff 1b 800] [energy 89.998130 ei 0.001 es 0.000 et 0.000 er 0.001] ------- [27:255 -1:255 29 0] [0x2 2 1 [0 0] [13 4]] (REQUEST)
D 0.005087561 _5_ MAC  COL 0 AODV 106 [0 ffffffff 1b 800] [energy 89.998130 ei 0.001 es 0.000 et 0.000 er 0.001] ------- [27:255 -1:255 29 0] [0x2 2 1 [0 0] [13 4]] (REQUEST)
D 0.005087569 _13_ MAC  COL 0 AODV 106 [0 ffffffff 21 800] [energy 89.995586 ei 0.001 es 0.000 et 0.003 er 0.000] ------- [33:255 -1:255 29 0] [0x2 2 3 [2 0] [13 8]] (REQUEST)
D 0.005087583 _40_ MAC  COL 0 AODV 106 [0 ffffffff 1b 800] [energy 89.998130 ei 0.001 es 0.000 et 0.000 er 0.001] ------- [27:255 -1:255 29 0] [0x2 2 1 [0 0] [13 4]] (REQUEST)
D 0.005087586 _0_ MAC  COL 0 AODV 106 [0 ffffffff 21 800] [energy 89.997442 ei 0.001 es 0.000 et 0.001 er 0.001] ------- [33:255 -1:255 29 0] [0x2 2 3 [2 0] [13 8]] (REQUEST)
D 0.005087608 _44_ MAC  COL 0 AODV 106 [0 ffffffff 21 800] [energy 89.998130 ei 0.001 es 0.000 et 0.000 er 0.001] ------- [33:255 -1:255 29 0] [0x2 2 3 [2 0] [13 8]] (REQUEST)
D 0.005087635 _49_ MAC  COL 0 AODV 106 [0 ffffffff 1b 800] [energy 89.998130 ei 0.001 es 0.000 et 0.000 er 0.001] ------- [27:255 -1:255 29 0] [0x2 2 1 [0 0] [13 4]] (REQUEST)
D 0.005087654 _31_ MAC  COL 0 AODV 106 [0 ffffffff 1b 800] [energy 89.998130 ei 0.001 es 0.000 et 0.000 er 0.001] ------- [27:255 -1:255 29 0] [0x2 2 1 [0 0] [13 4]] (REQUEST)
D 0.005087668 _45_ MAC  COL 0 AODV 106 [0 ffffffff 21 800] [energy 89.998130 ei 0.001 es 0.000 et 0.000 er 0.001] ------- [33:255 -1:255 29 0] [0x2 2 3 [2 0] [13 8]] (REQUEST)
D 0.005087678 _28_ MAC  COL 0 AODV 106 [0 ffffffff 21 800] [energy 89.998130 ei 0.001 es 0.000 et 0.000 er 0.001] ------- [33:255 -1:255 29 0] [0x2 2 3 [2 0] [13 8]] (REQUEST)
D 0.005087697 _12_ MAC  COL 0 AODV 106 [0 ffffffff 21 800] [energy 89.998130 ei 0.001 es 0.000 et 0.000 er 0.001] ------- [33:255 -1:255 29 0] [0x2 2 3 [2 0] [13 8]] (REQUEST)
D 0.005087705 _7_ MAC  COL 0 AODV 106 [0 ffffffff 1b 800] [energy 89.998130 ei 0.001 es 0.000 et 0.000 er 0.001] ------- [27:255 -1:255 29 0] [0x2 2 1 [0 0] [13 4]] (REQUEST)
D 0.005087722 _38_ MAC  COL 0 AODV 106 [0 ffffffff 23 800] [energy 89.998130 ei 0.001 es 0.000 et 0.000 er 0.001] ------- [35:255 -1:255 29 0] [0x2 2 4 [3 0] [13 10]] (REQUEST)
D 0.005087739 _45_ MAC  COL 0 AODV 106 [0 ffffffff f 800] [energy 89.998130 ei 0.001 es 0.000 et 0.000 er 0.001] ------- [15:255 -1:255 29 0] [0x2 2 4 [3 0] [13 10]] (REQUEST)
D 0.005087739 _30_ MAC  COL 0 AODV 106 [0 ffffffff 1b 800] [energy 89.998130 ei 0.001 es 0.000 et 0.000 er 0.001] ------- [27:255 -1:255 29 0] [0x2 2 1 [0 0] [13 4]] (REQUEST)
D 0.005087743 _25_ MAC  COL 0 AODV 106 [0 ffffffff 1b 800] [energy 89.998130 ei 0.001 es 0.000 et 0.000 er 0.001] ------- [27:255 -1:255 29 0] [0x2 2 1 [0 0] [13 4]] (REQUEST)
D 0.005087772 _9_ MAC  COL 0 AODV 106 [0 ffffffff 1b 800] [energy 89.998130 ei 0.001 es 0.000 et 0.000 er 0.001] ------- [27:255 -1:255 29 0] [0x2 2 1 [0 0] [13 4]] (REQUEST)
D 0.005087792 _41_ MAC  COL 0 AODV 106 [0 ffffffff 23 800] [energy 89.998130 ei 0.001 es 0.000 et 0.000 er 0.001] ------- [35:255 -1:255 29 0] [0x2 2 4 [3 0] [13 10]] (REQUEST)
D 0.005087806 _0_ MAC  COL 0 AODV 106 [0 ffffffff f 800] [energy 89.997442 ei 0.001 es 0.000 et 0.001 er 0.001] ------- [15:255 -1:255 29 0] [0x2 2 4 [3 0] [13 10]] (REQUEST)
D 0.005087818 _13_ MAC  COL 0 AODV 106 [0 ffffffff f 800] [energy 89.995586 ei 0.001 es 0.000 et 0.003 er 0.000] ------- [15:255 -1:255 29 0] [0x2 2 4 [3 0] [13 10]] (REQUEST)
D 0.005087827 _1_ MAC  COL 0 AODV 106 [0 ffffffff f 800] [energy 89.998130 ei 0.001 es 0.000 et 0.000 er 0.001] ------- [15:255 -1:255 29 0] [0x2 2 4 [3 0] [13 10]] (REQUEST)
D 0.005087865 _2_ MAC  COL 0 AODV 106 [0 ffffffff f 800] [energy 89.998130 ei 0.001 es 0.000 et 0.000 er 0.001] ------- [15:255 -1:255 29 0] [0x2 2 4 [3 0] [13 10]] (REQUEST)
D 0.005087868 _24_ MAC  COL 0 AODV 106 [0 ffffffff 23 800] [energy 89.998130 ei 0.001 es 0.000 et 0.000 er 0.001] ------- [35:255 -1:255 29 0] [0x2 2 4 [3 0] [13 10]] (REQUEST)
D 0.005087895 _21_ MAC  COL 0 AODV 106 [0 ffffffff f 800] [energy 89.997282 ei 0.001 es 0.000 et 0.001 er 0.001] ------- [15:255 -1:255 29 0] [0x2 2 4 [3 0] [13 10]] (REQUEST)
D 0.005087906 _19_ MAC  COL 0 AODV 106 [0 ffffffff f 800] [energy 89.998130 ei 0.001 es 0.000 et 0.000 er 0.001] ------- [15:255 -1:255 29 0] [0x2 2 4 [3 0] [13 10]] (REQUEST)
D 0.005087932 _43_ MAC  COL 0 AODV 106 [0 ffffffff f 800] [energy 89.998130 ei 0.001 es 0.000 et 0.000 er 0.001] ------- [15:255 -1:255 29 0] [0x2 2 4 [3 0] [13 10]] (REQUEST)
D 0.005087934 _40_ MAC  COL 0 AODV 106 [0 ffffffff f 800] [energy 89.998130 ei 0.001 es 0.000 et 0.000 er 0.001] ------- [15:255 -1:255 29 0] [0x2 2 4 [3 0] [13 10]] (REQUEST)
D 0.005088019 _31_ MAC  COL 0 AODV 106 [0 ffffffff 23 800] [energy 89.998130 ei 0.001 es 0.000 et 0.000 er 0.001] ------- [35:255 -1:255 29 0] [0x2 2 4 [3 0] [13 10]] (REQUEST)
D 0.005088035 _17_ MAC  COL 0 AODV 106 [0 ffffffff f 800] [energy 89.998130 ei 0.001 es 0.000 et 0.000 er 0.001] ------- [15:255 -1:255 29 0] [0x2 2 4 [3 0] [13 10]] (REQUEST)
D 0.005088055 _7_ MAC  COL 0 AODV 106 [0 ffffffff 23 800] [energy 89.998130 ei 0.001 es 0.000 et 0.000 er 0.001] ------- [35:255 -1:255 29 0] [0x2 2 4 [3 0] [13 10]] (REQUEST)
D 0.005088104 _37_ MAC  COL 0 AODV 106 [0 ffffffff 1b 800] [energy 89.998130 ei 0.001 es 0.000 et 0.000 er 0.001] ------- [27:255 -1:255 29 0] [0x2 2 1 [0 0] [13 4]] (REQUEST)
D 0.005088180 _22_ MAC  COL 0 AODV 106 [0 ffffffff 1b 800] [energy 89.998130 ei 0.001 es 0.000 et 0.000 er 0.001] ------- [27:255 -1:255 29 0] [0x2 2 1 [0 0] [13 4]] (REQUEST)
D 0.005934994 _14_ MAC  COL 0 AODV 106 [0 ffffffff f 800] [energy 89.998131 ei 0.001 es 0.000 et 0.000 er 0.001] ------- [15:255 -1:255 29 0] [0x2 2 4 [3 0] [13 10]] (REQUEST)
D 0.005935038 _32_ MAC  COL 0 AODV 106 [0 ffffffff f 800] [energy 89.998131 ei 0.001 es 0.000 et 0.000 er 0.001] ------- [15:255 -1:255 29 0] [0x2 2 4 [3 0] [13 10]] (REQUEST)
D 0.005935288 _18_ MAC  COL 0 AODV 106 [0 ffffffff 23 800] [energy 89.998130 ei 0.001 es 0.000 et 0.000 er 0.001] ------- [35:255 -1:255 29 0] [0x2 2 4 [3 0] [13 10]] (REQUEST)
D 0.005935306 _26_ MAC  COL 0 AODV 106 [0 ffffffff 23 800] [energy 89.998130 ei 0.001 es 0.000 et 0.000 er 0.001] ------- [35:255 -1:255 29 0] [0x2 2 4 [3 0] [13 10]] (REQUEST)
D 0.005935334 _50_ MAC  COL 0 AODV 106 [0 ffffffff 23 800] [energy 89.998130 ei 0.001 es 0.000 et 0.000 er 0.001] ------- [35:255 -1:255 29 0] [0x2 2 4 [3 0] [13 10]] (REQUEST)
D 0.005935334 _16_ MAC  COL 0 AODV 106 [0 ffffffff 23 800] [energy 89.998130 ei 0.001 es 0.000 et 0.000 er 0.001] ------- [35:255 -1:255 29 0] [0x2 2 4 [3 0] [13 10]] (REQUEST)
D 0.005935397 _39_ MAC  COL 0 AODV 106 [0 ffffffff 23 800] [energy 89.998131 ei 0.001 es 0.000 et 0.000 er 0.001] ------- [35:255 -1:255 29 0] [0x2 2 4 [3 0] [13 10]] (REQUEST)
D 0.005935427 _8_ MAC  COL 0 AODV 106 [0 ffffffff 23 800] [energy 89.998130 ei 0.001 es 0.000 et 0.000 er 0.001] ------- [35:255 -1:255 29 0] [0x2 2 4 [3 0] [13 10]] (REQUEST)
D 0.005935428 _10_ MAC  COL 0 AODV 106 [0 ffffffff 23 800] [energy 89.998130 ei 0.001 es 0.000 et 0.000 er 0.001] ------- [35:255 -1:255 29 0] [0x2 2 4 [3 0] [13 10]] (REQUEST)
D 0.005935485 _46_ MAC  COL 0 AODV 106 [0 ffffffff 23 800] [energy 89.998131 ei 0.001 es 0.000 et 0.000 er 0.001] ------- [35:255 -1:255 29 0] [0x2 2 4 [3 0] [13 10]] (REQUEST)
D 0.005935514 _52_ MAC  COL 0 AODV 106 [0 ffffffff 23 800] [energy 89.998130 ei 0.001 es 0.000 et 0.000 er 0.001] ------- [35:255 -1:255 29 0] [0x2 2 4 [3 0] [13 10]] (REQUEST)
D 0.005935540 _23_ MAC  COL 0 AODV 106 [0 ffffffff 23 800] [energy 89.998130 ei 0.001 es 0.000 et 0.000 er 0.001] ------- [35:255 -1:255 29 0] [0x2 2 4 [3 0] [13 10]] (REQUEST)
D 0.005935544 _11_ MAC  COL 0 AODV 106 [0 ffffffff 23 800] [energy 89.998130 ei 0.001 es 0.000 et 0.000 er 0.001] ------- [35:255 -1:255 29 0] [0x2 2 4 [3 0] [13 10]] (REQUEST)
D 0.005935561 _5_ MAC  COL 0 AODV 106 [0 ffffffff 23 800] [energy 89.998130 ei 0.001 es 0.000 et 0.000 er 0.001] ------- [35:255 -1:255 29 0] [0x2 2 4 [3 0] [13 10]] (REQUEST)
D 0.005935635 _49_ MAC  COL 0 AODV 106 [0 ffffffff 23 800] [energy 89.998130 ei 0.001 es 0.000 et 0.000 er 0.001] ------- [35:255 -1:255 29 0] [0x2 2 4 [3 0] [13 10]] (REQUEST)
D 0.005935739 _30_ MAC  COL 0 AODV 106 [0 ffffffff 23 800] [energy 89.998130 ei 0.001 es 0.000 et 0.000 er 0.001] ------- [35:255 -1:255 29 0] [0x2 2 4 [3 0] [13 10]] (REQUEST)
D 0.005935756 _36_ MAC  COL 0 AODV 106 [0 ffffffff 23 800] [energy 89.998130 ei 0.001 es 0.000 et 0.000 er 0.001] ------- [35:255 -1:255 29 0] [0x2 2 4 [3 0] [13 10]] (REQUEST)
D 0.005935763 _25_ MAC  COL 0 AODV 106 [0 ffffffff 23 800] [energy 89.998130 ei 0.001 es 0.000 et 0.000 er 0.001] ------- [35:255 -1:255 29 0] [0x2 2 4 [3 0] [13 10]] (REQUEST)
D 0.005935772 _9_ MAC  COL 0 AODV 106 [0 ffffffff 23 800] [energy 89.998130 ei 0.001 es 0.000 et 0.000 er 0.001] ------- [35:255 -1:255 29 0] [0x2 2 4 [3 0] [13 10]] (REQUEST)
D 0.005935806 _0_ MAC  COL 0 AODV 106 [0 ffffffff 23 800] [energy 89.997442 ei 0.001 es 0.000 et 0.001 er 0.001] ------- [35:255 -1:255 29 0] [0x2 2 4 [3 0] [13 10]] (REQUEST)
D 0.005935818 _13_ MAC  COL 0 AODV 106 [0 ffffffff 23 800] [energy 89.995586 ei 0.001 es 0.000 et 0.003 er 0.000] ------- [35:255 -1:255 29 0] [0x2 2 4 [3 0] [13 10]] (REQUEST)
D 0.005935827 _1_ MAC  COL 0 AODV 106 [0 ffffffff 23 800] [energy 89.998130 ei 0.001 es 0.000 et 0.000 er 0.001] ------- [35:255 -1:255 29 0] [0x2 2 4 [3 0] [13 10]] (REQUEST)
D 0.005935865 _2_ MAC  COL 0 AODV 106 [0 ffffffff 23 800] [energy 89.998130 ei 0.001 es 0.000 et 0.000 er 0.001] ------- [35:255 -1:255 29 0] [0x2 2 4 [3 0] [13 10]] (REQUEST)
D 0.005935895 _21_ MAC  COL 0 AODV 106 [0 ffffffff 23 800] [energy 89.997282 ei 0.001 es 0.000 et 0.001 er 0.001] ------- [35:255 -1:255 29 0] [0x2 2 4 [3 0] [13 10]] (REQUEST)
D 0.005935906 _19_ MAC  COL 0 AODV 106 [0 ffffffff 23 800] [energy 89.998130 ei 0.001 es 0.000 et 0.000 er 0.001] ------- [35:255 -1:255 29 0] [0x2 2 4 [3 0] [13 10]] (REQUEST)
D 0.005935925 _12_ MAC  COL 0 AODV 106 [0 ffffffff 23 800] [energy 89.998130 ei 0.001 es 0.000 et 0.000 er 0.001] ------- [35:255 -1:255 29 0] [0x2 2 4 [3 0] [13 10]] (REQUEST)
D 0.005935932 _43_ MAC  COL 0 AODV 106 [0 ffffffff 23 800] [energy 89.998130 ei 0.001 es 0.000 et 0.000 er 0.001] ------- [35:255 -1:255 29 0] [0x2 2 4 [3 0] [13 10]] (REQUEST)
D 0.005935934 _40_ MAC  COL 0 AODV 106 [0 ffffffff 23 800] [energy 89.998130 ei 0.001 es 0.000 et 0.000 er 0.001] ------- [35:255 -1:255 29 0] [0x2 2 4 [3 0] [13 10]] (REQUEST)
D 0.007288870 _0_ MAC  COL 0 AODV 106 [0 ffffffff 16 800] [energy 89.996640 ei 0.002 es 0.000 et 0.001 er 0.001] ------- [22:255 -1:255 28 0] [0x2 3 1 [0 0] [13 4]] (REQUEST)
D 0.007288944 _24_ MAC  COL 0 AODV 106 [0 ffffffff 2f 800] [energy 89.997328 ei 0.002 es 0.000 et 0.000 er 0.001] ------- [47:255 -1:255 28 0] [0x2 3 4 [3 0] [13 10]] (REQUEST)
D 0.007289014 _49_ MAC  COL 0 AODV 106 [0 ffffffff 2f 800] [energy 89.997329 ei 0.002 es 0.000 et 0.000 er 0.001] ------- [47:255 -1:255 28 0] [0x2 3 4 [3 0] [13 10]] (REQUEST)
D 0.007289032 _21_ MAC  COL 0 AODV 106 [0 ffffffff 16 800] [energy 89.996481 ei 0.002 es 0.000 et 0.001 er 0.001] ------- [22:255 -1:255 28 0] [0x2 3 1 [0 0] [13 4]] (REQUEST)
D 0.007289036 _3_ MAC  COL 0 AODV 106 [0 ffffffff 2f 800] [energy 89.997329 ei 0.002 es 0.000 et 0.000 er 0.001] ------- [47:255 -1:255 28 0] [0x2 3 4 [3 0] [13 10]] (REQUEST)
D 0.007289042 _27_ MAC  COL 0 AODV 106 [0 ffffffff 2f 800] [energy 89.996481 ei 0.002 es 0.000 et 0.001 er 0.001] ------- [47:255 -1:255 28 0] [0x2 3 4 [3 0] [13 10]] (REQUEST)
D 0.007289070 _46_ MAC  COL 0 AODV 106 [0 ffffffff 2f 800] [energy 89.997329 ei 0.002 es 0.000 et 0.000 er 0.001] ------- [47:255 -1:255 28 0] [0x2 3 4 [3 0] [13 10]] (REQUEST)
D 0.007289070 _11_ MAC  COL 0 AODV 106 [0 ffffffff 2f 800] [energy 89.996481 ei 0.002 es 0.000 et 0.001 er 0.001] ------- [47:255 -1:255 28 0] [0x2 3 4 [3 0] [13 10]] (REQUEST)
D 0.007289105 _7_ MAC  COL 0 AODV 106 [0 ffffffff 2f 800] [energy 89.997328 ei 0.002 es 0.000 et 0.000 er 0.001] ------- [47:255 -1:255 28 0] [0x2 3 4 [3 0] [13 10]] (REQUEST)
D 0.007289131 _1_ MAC  COL 0 AODV 106 [0 ffffffff 2f 800] [energy 89.997328 ei 0.002 es 0.000 et 0.000 er 0.001] ------- [47:255 -1:255 28 0] [0x2 3 4 [3 0] [13 10]] (REQUEST)
D 0.007289175 _13_ MAC  COL 0 AODV 106 [0 ffffffff 2f 800] [energy 89.994784 ei 0.002 es 0.000 et 0.003 er 0.001] ------- [47:255 -1:255 28 0] [0x2 3 4 [3 0] [13 10]] (REQUEST)
D 0.007289182 _25_ MAC  COL 0 AODV 106 [0 ffffffff 2f 800] [energy 89.997328 ei 0.002 es 0.000 et 0.000 er 0.001] ------- [47:255 -1:255 28 0] [0x2 3 4 [3 0] [13 10]] (REQUEST)
D 0.007289325 _9_ MAC  COL 0 AODV 106 [0 ffffffff 2f 800] [energy 89.997328 ei 0.002 es 0.000 et 0.000 er 0.001] ------- [47:255 -1:255 28 0] [0x2 3 4 [3 0] [13 10]] (REQUEST)
D 0.007289408 _53_ MAC  COL 0 AODV 106 [0 ffffffff 16 800] [energy 89.997328 ei 0.002 es 0.000 et 0.000 er 0.001] ------- [22:255 -1:255 28 0] [0x2 3 1 [0 0] [13 4]] (REQUEST)
D 0.007289456 _29_ MAC  COL 0 AODV 106 [0 ffffffff 16 800] [energy 89.997328 ei 0.002 es 0.000 et 0.000 er 0.001] ------- [22:255 -1:255 28 0] [0x2 3 1 [0 0] [13 4]] (REQUEST)
D 0.007289622 _31_ MAC  COL 0 AODV 106 [0 ffffffff 2f 800] [energy 89.997328 ei 0.002 es 0.000 et 0.000 er 0.001] ------- [47:255 -1:255 28 0] [0x2 3 4 [3 0] [13 10]] (REQUEST)
D 0.008136870 _0_ MAC  COL 0 AODV 106 [0 ffffffff 2f 800] [energy 89.996640 ei 0.002 es 0.000 et 0.001 er 0.001] ------- [47:255 -1:255 28 0] [0x2 3 4 [3 0] [13 10]] (REQUEST)
D 0.008136944 _24_ MAC  COL 0 AODV 106 [0 ffffffff 16 800] [energy 89.997328 ei 0.002 es 0.000 et 0.000 er 0.001] ------- [22:255 -1:255 28 0] [0x2 3 1 [0 0] [13 4]] (REQUEST)
D 0.008137014 _49_ MAC  COL 0 AODV 106 [0 ffffffff 16 800] [energy 89.997329 ei 0.002 es 0.000 et 0.000 er 0.001] ------- [22:255 -1:255 28 0] [0x2 3 1 [0 0] [13 4]] (REQUEST)
D 0.008137032 _21_ MAC  COL 0 AODV 106 [0 ffffffff 2f 800] [energy 89.996481 ei 0.002 es 0.000 et 0.001 er 0.001] ------- [47:255 -1:255 28 0] [0x2 3 4 [3 0] [13 10]] (REQUEST)
D 0.008137036 _3_ MAC  COL 0 AODV 106 [0 ffffffff 16 800] [energy 89.997329 ei 0.002 es 0.000 et 0.000 er 0.001] ------- [22:255 -1:255 28 0] [0x2 3 1 [0 0] [13 4]] (REQUEST)
D 0.008137042 _27_ MAC  COL 0 AODV 106 [0 ffffffff 16 800] [energy 89.996481 ei 0.002 es 0.000 et 0.001 er 0.001] ------- [22:255 -1:255 28 0] [0x2 3 1 [0 0] [13 4]] (REQUEST)
D 0.008137070 _46_ MAC  COL 0 AODV 106 [0 ffffffff 16 800] [energy 89.997329 ei 0.002 es 0.000 et 0.000 er 0.001] ------- [22:255 -1:255 28 0] [0x2 3 1 [0 0] [13 4]] (REQUEST)
D 0.008137070 _11_ MAC  COL 0 AODV 106 [0 ffffffff 16 800] [energy 89.996481 ei 0.002 es 0.000 et 0.001 er 0.001] ------- [22:255 -1:255 28 0] [0x2 3 1 [0 0] [13 4]] (REQUEST)
D 0.008137105 _7_ MAC  COL 0 AODV 106 [0 ffffffff 16 800] [energy 89.997328 ei 0.002 es 0.000 et 0.000 er 0.001] ------- [22:255 -1:255 28 0] [0x2 3 1 [0 0] [13 4]] (REQUEST)
D 0.008137131 _1_ MAC  COL 0 AODV 106 [0 ffffffff 16 800] [energy 89.997328 ei 0.002 es 0.000 et 0.000 er 0.001] ------- [22:255 -1:255 28 0] [0x2 3 1 [0 0] [13 4]] (REQUEST)
D 0.008137175 _13_ MAC  COL 0 AODV 106 [0 ffffffff 16 800] [energy 89.994784 ei 0.002 es 0.000 et 0.003 er 0.001] ------- [22:255 -1:255 28 0] [0x2 3 1 [0 0] [13 4]] (REQUEST)
D 0.008137182 _25_ MAC  COL 0 AODV 106 [0 ffffffff 16 800] [energy 89.997328 ei 0.002 es 0.000 et 0.000 er 0.001] ------- [22:255 -1:255 28 0] [0x2 3 1 [0 0] [13 4]] (REQUEST)
D 0.008137227 _34_ MAC  COL 0 AODV 106 [0 ffffffff 16 800] [energy 89.997328 ei 0.002 es 0.000 et 0.000 er 0.001] ------- [22:255 -1:255 28 0] [0x2 3 1 [0 0] [13 4]] (REQUEST)
D 0.012186376 _21_ MAC  COL 0 AODV 106 [0 ffffffff 13 800] [energy 89.995081 ei 0.002 es 0.000 et 0.001 er 0.002] ------- [19:255 -1:255 29 0] [0x2 2 4 [3 0] [13 10]] (REQUEST)
D 0.012186377 _27_ MAC  COL 0 AODV 106 [0 ffffffff 13 800] [energy 89.995082 ei 0.002 es 0.000 et 0.001 er 0.002] ------- [19:255 -1:255 29 0] [0x2 2 4 [3 0] [13 10]] (REQUEST)
D 0.012186391 _3_ MAC  COL 0 AODV 106 [0 ffffffff 13 800] [energy 89.995930 ei 0.002 es 0.000 et 0.000 er 0.002] ------- [19:255 -1:255 29 0] [0x2 2 4 [3 0] [13 10]] (REQUEST)
D 0.012186428 _39_ MAC  COL 0 AODV 106 [0 ffffffff 13 800] [energy 89.995930 ei 0.002 es 0.000 et 0.000 er 0.002] ------- [19:255 -1:255 29 0] [0x2 2 4 [3 0] [13 10]] (REQUEST)
D 0.012186434 _46_ MAC  COL 0 AODV 106 [0 ffffffff 13 800] [energy 89.995930 ei 0.002 es 0.000 et 0.000 er 0.002] ------- [19:255 -1:255 29 0] [0x2 2 4 [3 0] [13 10]] (REQUEST)
D 0.012186493 _18_ MAC  COL 0 AODV 106 [0 ffffffff 13 800] [energy 89.995930 ei 0.002 es 0.000 et 0.000 er 0.002] ------- [19:255 -1:255 29 0] [0x2 2 4 [3 0] [13 10]] (REQUEST)
D 0.012186550 _2_ MAC  COL 0 AODV 106 [0 ffffffff 13 800] [energy 89.995930 ei 0.002 es 0.000 et 0.000 er 0.002] ------- [19:255 -1:255 29 0] [0x2 2 4 [3 0] [13 10]] (REQUEST)
D 0.012186613 _0_ MAC  COL 0 AODV 106 [0 ffffffff 13 800] [energy 89.995241 ei 0.002 es 0.000 et 0.001 er 0.002] ------- [19:255 -1:255 29 0] [0x2 2 4 [3 0] [13 10]] (REQUEST)
D 0.012186662 _43_ MAC  COL 0 AODV 106 [0 ffffffff 13 800] [energy 89.995930 ei 0.002 es 0.000 et 0.000 er 0.002] ------- [19:255 -1:255 29 0] [0x2 2 4 [3 0] [13 10]] (REQUEST)
D 0.012186687 _49_ MAC  COL 0 AODV 106 [0 ffffffff 13 800] [energy 89.995930 ei 0.002 es 0.000 et 0.000 er 0.002] ------- [19:255 -1:255 29 0] [0x2 2 4 [3 0] [13 10]] (REQUEST)
D 0.012186731 _22_ MAC  COL 0 AODV 106 [0 ffffffff 13 800] [energy 89.995082 ei 0.002 es 0.000 et 0.001 er 0.002] ------- [19:255 -1:255 29 0] [0x2 2 4 [3 0] [13 10]] (REQUEST)
D 0.012186749 _25_ MAC  COL 0 AODV 106 [0 ffffffff 13 800] [energy 89.995930 ei 0.002 es 0.000 et 0.000 er 0.002] ------- [19:255 -1:255 29 0] [0x2 2 4 [3 0] [13 10]] (REQUEST)
D 0.012186755 _14_ MAC  COL 0 AODV 106 [0 ffffffff 13 800] [energy 89.995930 ei 0.002 es 0.000 et 0.000 er 0.002] ------- [19:255 -1:255 29 0] [0x2 2 4 [3 0] [13 10]] (REQUEST)
D 0.012186763 _33_ MAC  COL 0 AODV 106 [0 ffffffff 13 800] [energy 89.995082 ei 0.002 es 0.000 et 0.001 er 0.002] ------- [19:255 -1:255 29 0] [0x2 2 4 [3 0] [13 10]] (REQUEST)
D 0.012186797 _11_ MAC  COL 0 AODV 106 [0 ffffffff 13 800] [energy 89.995082 ei 0.002 es 0.000 et 0.001 er 0.002] ------- [19:255 -1:255 29 0] [0x2 2 4 [3 0] [13 10]] (REQUEST)
D 0.012186840 _37_ MAC  COL 0 AODV 106 [0 ffffffff 13 800] [energy 89.995930 ei 0.002 es 0.000 et 0.000 er 0.002] ------- [19:255 -1:255 29 0] [0x2 2 4 [3 0] [13 10]] (REQUEST)
D 0.012186890 _15_ MAC  COL 0 AODV 106 [0 ffffffff 13 800] [energy 89.995082 ei 0.002 es 0.000 et 0.001 er 0.002] ------- [19:255 -1:255 29 0] [0x2 2 4 [3 0] [13 10]] (REQUEST)
D 0.012186897 _10_ MAC  COL 0 AODV 106 [0 ffffffff 13 800] [energy 89.995930 ei 0.002 es 0.000 et 0.000 er 0.002] ------- [19:255 -1:255 29 0] [0x2 2 4 [3 0] [13 10]] (REQUEST)
D 0.012186904 _32_ MAC  COL 0 AODV 106 [0 ffffffff 13 800] [energy 89.995930 ei 0.002 es 0.000 et 0.000 er 0.002] ------- [19:255 -1:255 29 0] [0x2 2 4 [3 0] [13 10]] (REQUEST)
D 0.012187053 _30_ MAC  COL 0 AODV 106 [0 ffffffff 13 800] [energy 89.995082 ei 0.002 es 0.000 et 0.001 er 0.002] ------- [19:255 -1:255 29 0] [0x2 2 4 [3 0] [13 10]] (REQUEST)
D 0.013034376 _21_ MAC  COL 0 AODV 106 [0 ffffffff d 800] [energy 89.995081 ei 0.002 es 0.000 et 0.001 er 0.002] ------- [13:255 -1:255 30 0] [0x2 1 2 [1 0] [13 6]] (REQUEST)
D 0.013034377 _27_ MAC  COL 0 AODV 106 [0 ffffffff d 800] [energy 89.995082 ei 0.002 es 0.000 et 0.001 er 0.002] ------- [13:255 -1:255 30 0] [0x2 1 2 [1 0] [13 6]] (REQUEST)
D 0.013034391 _3_ MAC  COL 0 AODV 106 [0 ffffffff d 800] [energy 89.995930 ei 0.002 es 0.000 et 0.000 er 0.002] ------- [13:255 -1:255 30 0] [0x2 1 2 [1 0] [13 6]] (REQUEST)
D 0.013034428 _39_ MAC  COL 0 AODV 106 [0 ffffffff d 800] [energy 89.995930 ei 0.002 es 0.000 et 0.000 er 0.002] ------- [13:255 -1:255 30 0] [0x2 1 2 [1 0] [13 6]] (REQUEST)
D 0.013034434 _46_ MAC  COL 0 AODV 106 [0 ffffffff d 800] [energy 89.995930 ei 0.002 es 0.000 et 0.000 er 0.002] ------- [13:255 -1:255 30 0] [0x2 1 2 [1 0] [13 6]] (REQUEST)
D 0.013034493 _18_ MAC  COL 0 AODV 106 [0 ffffffff d 800] [energy 89.995930 ei 0.002 es 0.000 et 0.000 er 0.002] ------- [13:255 -1:255 30 0] [0x2 1 2 [1 0] [13 6]] (REQUEST)
D 0.013034550 _2_ MAC  COL 0 AODV 106 [0 ffffffff d 800] [energy 89.995930 ei 0.002 es 0.000 et 0.000 er 0.002] ------- [13:255 -1:255 30 0] [0x2 1 2 [1 0] [13 6]] (REQUEST)
D 0.013034553 _23_ MAC  COL 0 AODV 106 [0 ffffffff d 800] [energy 89.995930 ei 0.002 es 0.000 et 0.000 er 0.002] ------- [13:255 -1:255 30 0] [0x2 1 2 [1 0] [13 6]] (REQUEST)
D 0.013034588 _35_ MAC  COL 0 AODV 106 [0 ffffffff d 800] [energy 89.995082 ei 0.002 es 0.000 et 0.001 er 0.002] ------- [13:255 -1:255 30 0] [0x2 1 2 [1 0] [13 6]] (REQUEST)
D 0.013034613 _0_ MAC  COL 0 AODV 106 [0 ffffffff d 800] [energy 89.995241 ei 0.002 es 0.000 et 0.001 er 0.002] ------- [13:255 -1:255 30 0] [0x2 1 2 [1 0] [13 6]] (REQUEST)
D 0.013034662 _43_ MAC  COL 0 AODV 106 [0 ffffffff d 800] [energy 89.995930 ei 0.002 es 0.000 et 0.000 er 0.002] ------- [13:255 -1:255 30 0] [0x2 1 2 [1 0] [13 6]] (REQUEST)
D 0.013034675 _47_ MAC  COL 0 AODV 106 [0 ffffffff d 800] [energy 89.995082 ei 0.002 es 0.000 et 0.001 er 0.002] ------- [13:255 -1:255 30 0] [0x2 1 2 [1 0] [13 6]] (REQUEST)
D 0.013034687 _49_ MAC  COL 0 AODV 106 [0 ffffffff d 800] [energy 89.995930 ei 0.002 es 0.000 et 0.000 er 0.002] ------- [13:255 -1:255 30 0] [0x2 1 2 [1 0] [13 6]] (REQUEST)
D 0.013034731 _22_ MAC  COL 0 AODV 106 [0 ffffffff d 800] [energy 89.995082 ei 0.002 es 0.000 et 0.001 er 0.002] ------- [13:255 -1:255 30 0] [0x2 1 2 [1 0] [13 6]] (REQUEST)
D 0.013034739 _16_ MAC  COL 0 AODV 106 [0 ffffffff d 800] [energy 89.995930 ei 0.002 es 0.000 et 0.000 er 0.002] ------- [13:255 -1:255 30 0] [0x2 1 2 [1 0] [13 6]] (REQUEST)
D 0.013034749 _25_ MAC  COL 0 AODV 106 [0 ffffffff d 800] [energy 89.995930 ei 0.002 es 0.000 et 0.000 er 0.002] ------- [13:255 -1:255 30 0] [0x2 1 2 [1 0] [13 6]] (REQUEST)
D 0.013034755 _14_ MAC  COL 0 AODV 106 [0 ffffffff d 800] [energy 89.995930 ei 0.002 es 0.000 et 0.000 er 0.002] ------- [13:255 -1:255 30 0] [0x2 1 2 [1 0] [13 6]] (REQUEST)
D 0.013034763 _33_ MAC  COL 0 AODV 106 [0 ffffffff d 800] [energy 89.995082 ei 0.002 es 0.000 et 0.001 er 0.002] ------- [13:255 -1:255 30 0] [0x2 1 2 [1 0] [13 6]] (REQUEST)
D 0.013034797 _11_ MAC  COL 0 AODV 106 [0 ffffffff d 800] [energy 89.995082 ei 0.002 es 0.000 et 0.001 er 0.002] ------- [13:255 -1:255 30 0] [0x2 1 2 [1 0] [13 6]] (REQUEST)
D 0.013034840 _37_ MAC  COL 0 AODV 106 [0 ffffffff d 800] [energy 89.995930 ei 0.002 es 0.000 et 0.000 er 0.002] ------- [13:255 -1:255 30 0] [0x2 1 2 [1 0] [13 6]] (REQUEST)
D 0.013034853 _8_ MAC  COL 0 AODV 106 [0 ffffffff d 800] [energy 89.995930 ei 0.002 es 0.000 et 0.000 er 0.002] ------- [13:255 -1:255 30 0] [0x2 1 2 [1 0] [13 6]] (REQUEST)
D 0.013034856 _51_ MAC  COL 0 AODV 106 [0 ffffffff d 800] [energy 89.995082 ei 0.002 es 0.000 et 0.001 er 0.002] ------- [13:255 -1:255 30 0] [0x2 1 2 [1 0] [13 6]] (REQUEST)
D 0.013034890 _15_ MAC  COL 0 AODV 106 [0 ffffffff d 800] [energy 89.995082 ei 0.002 es 0.000 et 0.001 er 0.002] ------- [13:255 -1:255 30 0] [0x2 1 2 [1 0] [13 6]] (REQUEST)
D 0.013034897 _10_ MAC  COL 0 AODV 106 [0 ffffffff d 800] [energy 89.995930 ei 0.002 es 0.000 et 0.000 er 0.002] ------- [13:255 -1:255 30 0] [0x2 1 2 [1 0] [13 6]] (REQUEST)
D 0.013034904 _32_ MAC  COL 0 AODV 106 [0 ffffffff d 800] [energy 89.995930 ei 0.002 es 0.000 et 0.000 er 0.002] ------- [13:255 -1:255 30 0] [0x2 1 2 [1 0] [13 6]] (REQUEST)
D 0.016822970 _39_ MAC  COL 0 AODV 106 [0 ffffffff 7 800] [energy 89.994527 ei 0.003 es 0.000 et 0.000 er 0.003] ------- [7:255 -1:255 28 0] [0x2 3 3 [2 0] [13 8]] (REQUEST)
D 0.016822978 _13_ MAC  COL 0 AODV 106 [0 ffffffff 7 800] [energy 89.991135 ei 0.003 es 0.000 et 0.004 er 0.002] ------- [7:255 -1:255 28 0] [0x2 3 3 [2 0] [13 8]] (REQUEST)
D 0.016823044 _1_ MAC  COL 0 AODV 106 [0 ffffffff 7 800] [energy 89.994527 ei 0.003 es 0.000 et 0.000 er 0.003] ------- [7:255 -1:255 28 0] [0x2 3 3 [2 0] [13 8]] (REQUEST)