D 0.110460989 _0_ MAC  COL 0 AODV 106 [0 ffffffff 5 800] [energy 89.896133 ei 0.101 es 0.000 et 0.001 er 0.002] ------- [5:255 -1:255 29 0] [0x2 2 1 [15 0] [1 4]] (REQUEST)
D 0.110461047 _15_ MAC  COL 0 AODV 106 [0 ffffffff 5 800] [energy 89.894517 ei 0.101 es 0.000 et 0.003 er 0.001] ------- [5:255 -1:255 29 0] [0x2 2 1 [15 0] [1 4]] (REQUEST)
D 0.110461322 _1_ MAC  COL 0 AODV 106 [0 ffffffff 5 800] [energy 89.894485 ei 0.101 es 0.000 et 0.003 er 0.001] ------- [5:255 -1:255 29 0] [0x2 2 1 [15 0] [1 4]] (REQUEST)
D 0.110461344 _16_ MAC  COL 0 AODV 106 [0 ffffffff 5 800] [energy 89.896980 ei 0.101 es 0.000 et 0.000 er 0.002] ------- [5:255 -1:255 29 0] [0x2 2 1 [15 0] [1 4]] (REQUEST)
D 0.110461572 _33_ MAC  COL 0 AODV 106 [0 ffffffff 5 800] [energy 89.896981 ei 0.101 es 0.000 et 0.000 er 0.002] ------- [5:255 -1:255 29 0] [0x2 2 1 [15 0] [1 4]] (REQUEST)
D 0.110461669 _17_ MAC  COL 0 AODV 106 [0 ffffffff 5 800] [energy 89.896980 ei 0.101 es 0.000 et 0.000 er 0.002] ------- [5:255 -1:255 29 0] [0x2 2 1 [15 0] [1 4]] (REQUEST)
D 0.110461681 _10_ MAC  COL 0 AODV 106 [0 ffffffff 5 800] [energy 89.896980 ei 0.101 es 0.000 et 0.000 er 0.002] ------- [5:255 -1:255 29 0] [0x2 2 1 [15 0] [1 4]] (REQUEST)
D 0.110461889 _12_ MAC  COL 0 AODV 106 [0 ffffffff 5 800] [energy 89.896980 ei 0.101 es 0.000 et 0.000 er 0.002] ------- [5:255 -1:255 29 0] [0x2 2 1 [15 0] [1 4]] (REQUEST)
D 0.110461937 _39_ MAC  COL 0 AODV 106 [0 ffffffff 5 800] [energy 89.896980 ei 0.101 es 0.000 et 0.000 er 0.002] ------- [5:255 -1:255 29 0] [0x2 2 1 [15 0] [1 4]] (REQUEST)
D 0.111308989 _0_ MAC  COL 0 AODV 106 [0 ffffffff 23 800] [energy 89.896133 ei 0.101 es 0.000 et 0.001 er 0.002] ------- [35:255 -1:255 29 0] [0x2 2 1 [15 0] [1 4]] (REQUEST)
D 0.111309047 _15_ MAC  COL 0 AODV 106 [0 ffffffff 23 800] [energy 89.894517 ei 0.101 es 0.000 et 0.003 er 0.001] ------- [35:255 -1:255 29 0] [0x2 2 1 [15 0] [1 4]] (REQUEST)
D 0.111309322 _1_ MAC  COL 0 AODV 106 [0 ffffffff 23 800] [energy 89.894485 ei 0.101 es 0.000 et 0.003 er 0.001] ------- [35:255 -1:255 29 0] [0x2 2 1 [15 0] [1 4]] (REQUEST)
D 0.111309344 _16_ MAC  COL 0 AODV 106 [0 ffffffff 23 800] [energy 89.896980 ei 0.101 es 0.000 et 0.000 er 0.002] ------- [35:255 -1:255 29 0] [0x2 2 1 [15 0] [1 4]] (REQUEST)
D 0.111309572 _33_ MAC  COL 0 AODV 106 [0 ffffffff 23 800] [energy 89.896981 ei 0.101 es 0.000 et 0.000 er 0.002] ------- [35:255 -1:255 29 0] [0x2 2 1 [15 0] [1 4]] (REQUEST)
D 0.113801110 _9_ MAC  COL 0 AODV 106 [0 ffffffff 7 800] [energy 89.895740 ei 0.102 es 0.000 et 0.000 er 0.002] ------- [7:255 -1:255 29 0] [0x2 2 1 [15 0] [1 4]] (REQUEST)
D 0.113801248 _14_ MAC  COL 0 AODV 106 [0 ffffffff 7 800] [energy 89.895740 ei 0.102 es 0.000 et 0.000 er 0.002] ------- [7:255 -1:255 29 0] [0x2 2 1 [15 0] [1 4]] (REQUEST)
D 0.113801248 _12_ MAC  COL 0 AODV 106 [0 ffffffff 7 800] [energy 89.894892 ei 0.102 es 0.000 et 0.001 er 0.002] ------- [7:255 -1:255 29 0] [0x2 2 1 [15 0] [1 4]] (REQUEST)
D 0.113801267 _4_ MAC  COL 0 AODV 106 [0 ffffffff 8 800] [energy 89.895740 ei 0.102 es 0.000 et 0.000 er 0.002] ------- [8:255 -1:255 29 0] [0x2 2 1 [15 0] [1 4]] (REQUEST)
D 0.113801308 _2_ MAC  COL 0 AODV 106 [0 ffffffff 7 800] [energy 89.895740 ei 0.102 es 0.000 et 0.000 er 0.002] ------- [7:255 -1:255 29 0] [0x2 2 1 [15 0] [1 4]] (REQUEST)
D 0.113801310 _34_ MAC  COL 0 AODV 106 [0 ffffffff 7 800] [energy 89.895740 ei 0.102 es 0.000 et 0.000 er 0.002] ------- [7:255 -1:255 29 0] [0x2 2 1 [15 0] [1 4]] (REQUEST)
D 0.113801323 _10_ MAC  COL 0 AODV 106 [0 ffffffff 7 800] [energy 89.895740 ei 0.102 es 0.000 et 0.000 er 0.002] ------- [7:255 -1:255 29 0] [0x2 2 1 [15 0] [1 4]] (REQUEST)
D 0.113801363 _17_ MAC  COL 0 AODV 106 [0 ffffffff 7 800] [energy 89.895739 ei 0.102 es 0.000 et 0.000 er 0.002] ------- [7:255 -1:255 29 0] [0x2 2 1 [15 0] [1 4]] (REQUEST)
D 0.113801384 _4_ MAC  COL 0 AODV 106 [0 ffffffff 7 800] [energy 89.895739 ei 0.102 es 0.000 et 0.000 er 0.002] ------- [7:255 -1:255 29 0] [0x2 2 1 [15 0] [1 4]] (REQUEST)
D 0.113801390 _19_ MAC  COL 0 AODV 106 [0 ffffffff 8 800] [energy 89.895739 ei 0.102 es 0.000 et 0.000 er 0.002] ------- [8:255 -1:255 29 0] [0x2 2 1 [15 0] [1 4]] (REQUEST)
D 0.113801416 _17_ MAC  COL 0 AODV 106 [0 ffffffff 8 800] [energy 89.895739 ei 0.102 es 0.000 et 0.000 er 0.002] ------- [8:255 -1:255 29 0] [0x2 2 1 [15 0] [1 4]] (REQUEST)
D 0.113801416 _19_ MAC  COL 0 AODV 106 [0 ffffffff 7 800] [energy 89.895739 ei 0.102 es 0.000 et 0.000 er 0.002] ------- [7:255 -1:255 29 0] [0x2 2 1 [15 0] [1 4]] (REQUEST)
D 0.113801445 _37_ MAC  COL 0 AODV 106 [0 ffffffff 7 800] [energy 89.894892 ei 0.102 es 0.000 et 0.001 er 0.002] ------- [7:255 -1:255 29 0] [0x2 2 1 [15 0] [1 4]] (REQUEST)
D 0.113801490 _6_ MAC  COL 0 AODV 106 [0 ffffffff 7 800] [energy 89.894892 ei 0.102 es 0.000 et 0.001 er 0.002] ------- [7:255 -1:255 29 0] [0x2 2 1 [15 0] [1 4]] (REQUEST)
D 0.113801522 _1_ MAC  COL 0 AODV 106 [0 ffffffff 7 800] [energy 89.893243 ei 0.102 es 0.000 et 0.003 er 0.002] ------- [7:255 -1:255 29 0] [0x2 2 1 [15 0] [1 4]] (REQUEST)
D 0.113801522 _9_ MAC  COL 0 AODV 106 [0 ffffffff 8 800] [energy 89.895740 ei 0.102 es 0.000 et 0.000 er 0.002] ------- [8:255 -1:255 29 0] [0x2 2 1 [15 0] [1 4]] (REQUEST)
D 0.113801566 _11_ MAC  COL 0 AODV 106 [0 ffffffff 7 800] [energy 89.895740 ei 0.102 es 0.000 et 0.000 er 0.002] ------- [7:255 -1:255 29 0] [0x2 2 1 [15 0] [1 4]] (REQUEST)
D 0.113801597 _32_ MAC  COL 0 AODV 106 [0 ffffffff 7 800] [energy 89.895740 ei 0.102 es 0.000 et 0.000 er 0.002] ------- [7:255 -1:255 29 0] [0x2 2 1 [15 0] [1 4]] (REQUEST)
D 0.113801717 _39_ MAC  COL 0 AODV 106 [0 ffffffff 7 800] [energy 89.895740 ei 0.102 es 0.000 et 0.000 er 0.002] ------- [7:255 -1:255 29 0] [0x2 2 1 [15 0] [1 4]] (REQUEST)
D 0.113801717 _1_ MAC  COL 0 AODV 106 [0 ffffffff 8 800] [energy 89.893243 ei 0.102 es 0.000 et 0.003 er 0.002] ------- [8:255 -1:255 29 0] [0x2 2 1 [15 0] [1 4]] (REQUEST)
D 0.113801734 _16_ MAC  COL 0 AODV 106 [0 ffffffff 8 800] [energy 89.895739 ei 0.102 es 0.000 et 0.000 er 0.002] ------- [8:255 -1:255 29 0] [0x2 2 1 [15 0] [1 4]] (REQUEST)
D 0.113801793 _10_ MAC  COL 0 AODV 106 [0 ffffffff 8 800] [energy 89.895740 ei 0.102 es 0.000 et 0.000 er 0.002] ------- [8:255 -1:255 29 0] [0x2 2 1 [15 0] [1 4]] (REQUEST)
D 0.113801796 _14_ MAC  COL 0 AODV 106 [0 ffffffff 8 800] [energy 89.895740 ei 0.102 es 0.000 et 0.000 er 0.002] ------- [8:255 -1:255 29 0] [0x2 2 1 [15 0] [1 4]] (REQUEST)
D 0.113801796 _12_ MAC  COL 0 AODV 106 [0 ffffffff 8 800] [energy 89.894892 ei 0.102 es 0.000 et 0.001 er 0.002] ------- [8:255 -1:255 29 0] [0x2 2 1 [15 0] [1 4]] (REQUEST)
D 0.113801824 _6_ MAC  COL 0 AODV 106 [0 ffffffff 8 800] [energy 89.894892 ei 0.102 es 0.000 et 0.001 er 0.002] ------- [8:255 -1:255 29 0] [0x2 2 1 [15 0] [1 4]] (REQUEST)
D 0.113801830 _22_ MAC  COL 0 AODV 106 [0 ffffffff 7 800] [energy 89.895739 ei 0.102 es 0.000 et 0.000 er 0.002] ------- [7:255 -1:255 29 0] [0x2 2 1 [15 0] [1 4]] (REQUEST)
D 0.113801871 _34_ MAC  COL 0 AODV 106 [0 ffffffff 8 800] [energy 89.895740 ei 0.102 es 0.000 et 0.000 er 0.002] ------- [8:255 -1:255 29 0] [0x2 2 1 [15 0] [1 4]] (REQUEST)
D 0.113801880 _2_ MAC  COL 0 AODV 106 [0 ffffffff 8 800] [energy 89.895740 ei 0.102 es 0.000 et 0.000 er 0.002] ------- [8:255 -1:255 29 0] [0x2 2 1 [15 0] [1 4]] (REQUEST)
D 0.113802023 _37_ MAC  COL 0 AODV 106 [0 ffffffff 8 800] [energy 89.894892 ei 0.102 es 0.000 et 0.001 er 0.002] ------- [8:255 -1:255 29 0] [0x2 2 1 [15 0] [1 4]] (REQUEST)
D 0.113802157 _11_ MAC  COL 0 AODV 106 [0 ffffffff 8 800] [energy 89.895740 ei 0.102 es 0.000 et 0.000 er 0.002] ------- [8:255 -1:255 29 0] [0x2 2 1 [15 0] [1 4]] (REQUEST)
D 0.113802184 _32_ MAC  COL 0 AODV 106 [0 ffffffff 8 800] [energy 89.895740 ei 0.102 es 0.000 et 0.000 er 0.002] ------- [8:255 -1:255 29 0] [0x2 2 1 [15 0] [1 4]] (REQUEST)
D 0.114649384 _4_ MAC  COL 0 AODV 106 [0 ffffffff 3 800] [energy 89.895739 ei 0.102 es 0.000 et 0.000 er 0.002] ------- [3:255 -1:255 29 0] [0x2 2 1 [15 0] [1 4]] (REQUEST)
D 0.114649416 _17_ MAC  COL 0 AODV 106 [0 ffffffff 3 800] [energy 89.895739 ei 0.102 es 0.000 et 0.000 er 0.002] ------- [3:255 -1:255 29 0] [0x2 2 1 [15 0] [1 4]] (REQUEST)
D 0.114649416 _19_ MAC  COL 0 AODV 106 [0 ffffffff 3 800] [energy 89.895739 ei 0.102 es 0.000 et 0.000 er 0.002] ------- [3:255 -1:255 29 0] [0x2 2 1 [15 0] [1 4]] (REQUEST)
D 0.114649522 _9_ MAC  COL 0 AODV 106 [0 ffffffff 3 800] [energy 89.895740 ei 0.102 es 0.000 et 0.000 er 0.002] ------- [3:255 -1:255 29 0] [0x2 2 1 [15 0] [1 4]] (REQUEST)
D 0.114649717 _1_ MAC  COL 0 AODV 106 [0 ffffffff 3 800] [energy 89.893243 ei 0.102 es 0.000 et 0.003 er 0.002] ------- [3:255 -1:255 29 0] [0x2 2 1 [15 0] [1 4]] (REQUEST)
D 0.114649734 _16_ MAC  COL 0 AODV 106 [0 ffffffff 3 800] [energy 89.895739 ei 0.102 es 0.000 et 0.000 er 0.002] ------- [3:255 -1:255 29 0] [0x2 2 1 [15 0] [1 4]] (REQUEST)
D 0.114649793 _10_ MAC  COL 0 AODV 106 [0 ffffffff 3 800] [energy 89.895740 ei 0.102 es 0.000 et 0.000 er 0.002] ------- [3:255 -1:255 29 0] [0x2 2 1 [15 0] [1 4]] (REQUEST)
D 0.114649796 _14_ MAC  COL 0 AODV 106 [0 ffffffff 3 800] [energy 89.895740 ei 0.102 es 0.000 et 0.000 er 0.002] ------- [3:255 -1:255 29 0] [0x2 2 1 [15 0] [1 4]] (REQUEST)
D 0.114649796 _12_ MAC  COL 0 AODV 106 [0 ffffffff 3 800] [energy 89.894892 ei 0.102 es 0.000 et 0.001 er 0.002] ------- [3:255 -1:255 29 0] [0x2 2 1 [15 0] [1 4]] (REQUEST)
D 0.114649824 _6_ MAC  COL 0 AODV 106 [0 ffffffff 3 800] [energy 89.894892 ei 0.102 es 0.000 et 0.001 er 0.002] ------- [3:255 -1:255 29 0] [0x2 2 1 [15 0] [1 4]] (REQUEST)
D 0.114649871 _34_ MAC  COL 0 AODV 106 [0 ffffffff 3 800] [energy 89.895740 ei 0.102 es 0.000 et 0.000 er 0.002] ------- [3:255 -1:255 29 0] [0x2 2 1 [15 0] [1 4]] (REQUEST)
D 0.114649880 _2_ MAC  COL 0 AODV 106 [0 ffffffff 3 800] [energy 89.895740 ei 0.102 es 0.000 et 0.000 er 0.002] ------- [3:255 -1:255 29 0] [0x2 2 1 [15 0] [1 4]] (REQUEST)
D 0.116902102 _11_ MAC  COL 0 AODV 106 [0 ffffffff 1f 800] [energy 89.894739 ei 0.103 es 0.000 et 0.000 er 0.003] ------- [31:255 -1:255 28 0] [0x2 3 1 [15 0] [1 4]] (REQUEST)
D 0.116902118 _32_ MAC  COL 0 AODV 106 [0 ffffffff 1f 800] [energy 89.894739 ei 0.103 es 0.000 et 0.000 er 0.003] ------- [31:255 -1:255 28 0] [0x2 3 1 [15 0] [1 4]] (REQUEST)
D 0.116902242 _39_ MAC  COL 0 AODV 106 [0 ffffffff 1f 800] [energy 89.893891 ei 0.103 es 0.000 et 0.001 er 0.003] ------- [31:255 -1:255 28 0] [0x2 3 1 [15 0] [1 4]] (REQUEST)
D 0.116902367 _22_ MAC  COL 0 AODV 106 [0 ffffffff 1f 800] [energy 89.894739 ei 0.103 es 0.000 et 0.000 er 0.003] ------- [31:255 -1:255 28 0] [0x2 3 1 [15 0] [1 4]] (REQUEST)
D 0.116902530 _27_ MAC  COL 0 AODV 106 [0 ffffffff 1f 800] [energy 89.894039 ei 0.103 es 0.000 et 0.000 er 0.003] ------- [31:255 -1:255 28 0] [0x2 3 1 [15 0] [1 4]] (REQUEST)
D 0.116902580 _6_ MAC  COL 0 AODV 106 [0 ffffffff 2 800] [energy 89.893890 ei 0.103 es 0.000 et 0.001 er 0.003] ------- [2:255 -1:255 28 0] [0x2 3 1 [15 0] [1 4]] (REQUEST)
D 0.116902666 _33_ MAC  COL 0 AODV 106 [0 ffffffff 1f 800] [energy 89.894738 ei 0.103 es 0.000 et 0.000 er 0.003] ------- [31:255 -1:255 28 0] [0x2 3 1 [15 0] [1 4]] (REQUEST)
D 0.116902673 _13_ MAC  COL 0 AODV 106 [0 ffffffff 1f 800] [energy 89.893890 ei 0.103 es 0.000 et 0.001 er 0.003] ------- [31:255 -1:255 28 0] [0x2 3 1 [15 0] [1 4]] (REQUEST)
D 0.116902688 _38_ MAC  COL 0 AODV 106 [0 ffffffff 1f 800] [energy 89.893890 ei 0.103 es 0.000 et 0.001 er 0.003] ------- [31:255 -1:255 28 0] [0x2 3 1 [15 0] [1 4]] (REQUEST)
D 0.116902986 _9_ MAC  COL 0 AODV 106 [0 ffffffff 2 800] [energy 89.894737 ei 0.103 es 0.000 et 0.000 er 0.003] ------- [2:255 -1:255 28 0] [0x2 3 1 [15 0] [1 4]] (REQUEST)
D 0.116903046 _3_ MAC  COL 0 AODV 106 [0 ffffffff 2 800] [energy 89.893889 ei 0.103 es 0.000 et 0.001 er 0.003] ------- [2:255 -1:255 28 0] [0x2 3 1 [15 0] [1 4]] (REQUEST)
D 0.117750102 _11_ MAC  COL 0 AODV 106 [0 ffffffff 2 800] [energy 89.894739 ei 0.103 es 0.000 et 0.000 er 0.003] ------- [2:255 -1:255 28 0] [0x2 3 1 [15 0] [1 4]] (REQUEST)
D 0.117750118 _32_ MAC  COL 0 AODV 106 [0 ffffffff 2 800] [energy 89.894739 ei 0.103 es 0.000 et 0.000 er 0.003] ------- [2:255 -1:255 28 0] [0x2 3 1 [15 0] [1 4]] (REQUEST)
D 0.117750242 _39_ MAC  COL 0 AODV 106 [0 ffffffff 2 800] [energy 89.893891 ei 0.103 es 0.000 et 0.001 er 0.003] ------- [2:255 -1:255 28 0] [0x2 3 1 [15 0] [1 4]] (REQUEST)
D 0.117750367 _22_ MAC  COL 0 AODV 106 [0 ffffffff 2 800] [energy 89.894739 ei 0.103 es 0.000 et 0.000 er 0.003] ------- [2:255 -1:255 28 0] [0x2 3 1 [15 0] [1 4]] (REQUEST)
D 0.117750530 _27_ MAC  COL 0 AODV 106 [0 ffffffff 2 800] [energy 89.894039 ei 0.103 es 0.000 et 0.000 er 0.003] ------- [2:255 -1:255 28 0] [0x2 3 1 [15 0] [1 4]] (REQUEST)
D 0.118205244 _15_ MAC  COL 0 RTS 44 [1dee f 1 0] [energy 89.891670 ei 0.103 es 0.000 et 0.003 er 0.002] 
D 0.119052675 _6_ MAC  COL 0 AODV 106 [0 ffffffff a 800] [energy 89.893287 ei 0.103 es 0.000 et 0.001 er 0.003] ------- [10:255 -1:255 29 0] [0x2 2 1 [15 0] [1 4]] (REQUEST)
D 0.119052892 _5_ MAC  COL 0 AODV 106 [0 ffffffff a 800] [energy 89.893287 ei 0.103 es 0.000 et 0.001 er 0.003] ------- [10:255 -1:255 29 0] [0x2 2 1 [15 0] [1 4]] (REQUEST)
D 0.119052898 _8_ MAC  COL 0 AODV 106 [0 ffffffff a 800] [energy 89.893287 ei 0.103 es 0.000 et 0.001 er 0.003] ------- [10:255 -1:255 29 0] [0x2 2 1 [15 0] [1 4]] (REQUEST)
D 0.119052983 _36_ MAC  COL 0 AODV 106 [0 ffffffff a 800] [energy 89.894135 ei 0.103 es 0.000 et 0.000 er 0.003] ------- [10:255 -1:255 29 0] [0x2 2 1 [15 0] [1 4]] (REQUEST)
D 0.119052999 _38_ MAC  COL 0 AODV 106 [0 ffffffff a 800] [energy 89.893287 ei 0.103 es 0.000 et 0.001 er 0.003] ------- [10:255 -1:255 29 0] [0x2 2 1 [15 0] [1 4]] (REQUEST)
D 0.119053009 _13_ MAC  COL 0 AODV 106 [0 ffffffff a 800] [energy 89.893287 ei 0.103 es 0.000 et 0.001 er 0.003] ------- [10:255 -1:255 29 0] [0x2 2 1 [15 0] [1 4]] (REQUEST)
D 0.119053029 _33_ MAC  COL 0 AODV 106 [0 ffffffff a 800] [energy 89.894135 ei 0.103 es 0.000 et 0.000 er 0.003] ------- [10:255 -1:255 29 0] [0x2 2 1 [15 0] [1 4]] (REQUEST)
D 0.119053068 _17_ MAC  COL 0 AODV 106 [0 ffffffff a 800] [energy 89.894134 ei 0.103 es 0.000 et 0.000 er 0.003] ------- [10:255 -1:255 29 0] [0x2 2 1 [15 0] [1 4]] (REQUEST)
D 0.119053073 _31_ MAC  COL 0 AODV 106 [0 ffffffff a 800] [energy 89.893288 ei 0.103 es 0.000 et 0.001 er 0.003] ------- [10:255 -1:255 29 0] [0x2 2 1 [15 0] [1 4]] (REQUEST)
D 0.119053090 _0_ MAC  COL 0 AODV 106 [0 ffffffff a 800] [energy 89.893286 ei 0.103 es 0.000 et 0.001 er 0.003] ------- [10:255 -1:255 29 0] [0x2 2 1 [15 0] [1 4]] (REQUEST)
D 0.119053094 _3_ MAC  COL 0 AODV 106 [0 ffffffff a 800] [energy 89.893286 ei 0.103 es 0.000 et 0.001 er 0.003] ------- [10:255 -1:255 29 0] [0x2 2 1 [15 0] [1 4]] (REQUEST)
D 0.119053154 _21_ MAC  COL 0 AODV 106 [0 ffffffff a 800] [energy 89.894136 ei 0.103 es 0.000 et 0.000 er 0.003] ------- [10:255 -1:255 29 0] [0x2 2 1 [15 0] [1 4]] (REQUEST)
D 0.119053156 _22_ MAC  COL 0 AODV 106 [0 ffffffff a 800] [energy 89.894135 ei 0.103 es 0.000 et 0.000 er 0.003] ------- [10:255 -1:255 29 0] [0x2 2 1 [15 0] [1 4]] (REQUEST)
D 0.119808223 _13_ MAC  COL 0 AODV 106 [0 ffffffff 1c 800] [energy 89.892596 ei 0.104 es 0.000 et 0.001 er 0.003] ------- [28:255 -1:255 28 0] [0x2 3 1 [15 0] [1 4]] (REQUEST)
D 0.119808262 _39_ MAC  COL 0 AODV 106 [0 ffffffff 1c 800] [energy 89.892596 ei 0.104 es 0.000 et 0.001 er 0.003] ------- [28:255 -1:255 28 0] [0x2 3 1 [15 0] [1 4]] (REQUEST)
D 0.119808283 _33_ MAC  COL 0 AODV 106 [0 ffffffff 1c 800] [energy 89.893444 ei 0.104 es 0.000 et 0.000 er 0.003] ------- [28:255 -1:255 28 0] [0x2 3 1 [15 0] [1 4]] (REQUEST)
D 0.120655401 _16_ MAC  COL 0 AODV 106 [0 ffffffff 11 800] [energy 89.893442 ei 0.104 es 0.000 et 0.000 er 0.003] ------- [17:255 -1:255 29 0] [0x2 2 1 [15 0] [1 4]] (REQUEST)
D 0.120655434 _1_ MAC  COL 0 AODV 106 [0 ffffffff 11 800] [energy 89.890595 ei 0.104 es 0.000 et 0.003 er 0.002] ------- [17:255 -1:255 29 0] [0x2 2 1 [15 0] [1 4]] (REQUEST)
D 0.120655655 _8_ MAC  COL 0 AODV 106 [0 ffffffff 11 800] [energy 89.892595 ei 0.104 es 0.000 et 0.001 er 0.003] ------- [17:255 -1:255 29 0] [0x2 2 1 [15 0] [1 4]] (REQUEST)
D 0.120655657 _6_ MAC  COL 0 AODV 106 [0 ffffffff 11 800] [energy 89.892595 ei 0.104 es 0.000 et 0.001 er 0.003] ------- [17:255 -1:255 29 0] [0x2 2 1 [15 0] [1 4]] (REQUEST)
D 0.120655735 _15_ MAC  COL 0 AODV 106 [0 ffffffff 11 800] [energy 89.890978 ei 0.104 es 0.000 et 0.003 er 0.003] ------- [17:255 -1:255 29 0] [0x2 2 1 [15 0] [1 4]] (REQUEST)
D 0.120655751 _0_ MAC  COL 0 AODV 106 [0 ffffffff 11 800] [energy 89.892594 ei 0.104 es 0.000 et 0.001 er 0.003] ------- [17:255 -1:255 29 0] [0x2 2 1 [15 0] [1 4]] (REQUEST)
D 0.120655785 _10_ MAC  COL 0 AODV 106 [0 ffffffff 11 800] [energy 89.892595 ei 0.104 es 0.000 et 0.001 er 0.003] ------- [17:255 -1:255 29 0] [0x2 2 1 [15 0] [1 4]] (REQUEST)
D 0.120655807 _7_ MAC  COL 0 AODV 106 [0 ffffffff 11 800] [energy 89.892595 ei 0.104 es 0.000 et 0.001 er 0.003] ------- [17:255 -1:255 29 0] [0x2 2 1 [15 0] [1 4]] (REQUEST)
D 0.120655885 _18_ MAC  COL 0 AODV 106 [0 ffffffff 11 800] [energy 89.893442 ei 0.104 es 0.000 et 0.000 er 0.003] ------- [17:255 -1:255 29 0] [0x2 2 1 [15 0] [1 4]] (REQUEST)
D 0.120655885 _12_ MAC  COL 0 AODV 106 [0 ffffffff 11 800] [energy 89.892596 ei 0.104 es 0.000 et 0.001 er 0.003] ------- [17:255 -1:255 29 0] [0x2 2 1 [15 0] [1 4]] (REQUEST)
D 0.120655892 _5_ MAC  COL 0 AODV 106 [0 ffffffff 11 800] [energy 89.892595 ei 0.104 es 0.000 et 0.001 er 0.003] ------- [17:255 -1:255 29 0] [0x2 2 1 [15 0] [1 4]] (REQUEST)
D 0.120655901 _25_ MAC  COL 0 AODV 106 [0 ffffffff 11 800] [energy 89.892594 ei 0.104 es 0.000 et 0.001 er 0.003] ------- [17:255 -1:255 29 0] [0x2 2 1 [15 0] [1 4]] (REQUEST)
D 0.124759748 _21_ MAC  COL 0 AODV 106 [0 ffffffff b 800] [energy 89.891991 ei 0.104 es 0.000 et 0.000 er 0.004] ------- [11:255 -1:255 27 0] [0x2 4 1 [15 0] [1 4]] (REQUEST)
D 0.124759831 _31_ MAC  COL 0 AODV 106 [0 ffffffff b 800] [energy 89.891143 ei 0.104 es 0.000 et 0.001 er 0.004] ------- [11:255 -1:255 27 0] [0x2 4 1 [15 0] [1 4]] (REQUEST)
D 0.124759918 _27_ MAC  COL 0 AODV 106 [0 ffffffff b 800] [energy 89.891291 ei 0.105 es 0.000 et 0.000 er 0.004] ------- [11:255 -1:255 27 0] [0x2 4 1 [15 0] [1 4]] (REQUEST)
D 0.124759956 _22_ MAC  COL 0 AODV 106 [0 ffffffff b 800] [energy 89.891991 ei 0.104 es 0.000 et 0.000 er 0.004] ------- [11:255 -1:255 27 0] [0x2 4 1 [15 0] [1 4]] (REQUEST)
D 0.124760085 _39_ MAC  COL 0 AODV 106 [0 ffffffff b 800] [energy 89.891143 ei 0.104 es 0.000 et 0.001 er 0.004] ------- [11:255 -1:255 27 0] [0x2 4 1 [15 0] [1 4]] (REQUEST)
D 0.124760099 _21_ MAC  COL 0 AODV 106 [0 ffffffff 1d 800] [energy 89.891991 ei 0.104 es 0.000 et 0.000 er 0.004] ------- [29:255 -1:255 27 0] [0x2 4 1 [15 0] [1 4]] (REQUEST)
D 0.124760109 _31_ MAC  COL 0 AODV 106 [0 ffffffff 1d 800] [energy 89.891143 ei 0.104 es 0.000 et 0.001 er 0.004] ------- [29:255 -1:255 27 0] [0x2 4 1 [15 0] [1 4]] (REQUEST)
D 0.124760239 _39_ MAC  COL 0 AODV 106 [0 ffffffff 1d 800] [energy 89.891143 ei 0.104 es 0.000 et 0.001 er 0.004] ------- [29:255 -1:255 27 0] [0x2 4 1 [15 0] [1 4]] (REQUEST)
D 0.124760474 _33_ MAC  COL 0 AODV 106 [0 ffffffff 14 800] [energy 89.891990 ei 0.104 es 0.000 et 0.000 er 0.004] ------- [20:255 -1:255 28 0] [0x2 3 1 [15 0] [1 4]] (REQUEST)
D 0.124760545 _13_ MAC  COL 0 AODV 106 [0 ffffffff 14 800] [energy 89.891142 ei 0.104 es 0.000 et 0.001 er 0.004] ------- [20:255 -1:255 28 0] [0x2 3 1 [15 0] [1 4]] (REQUEST)
D 0.124760549 _10_ MAC  COL 0 AODV 106 [0 ffffffff b 800] [energy 89.891141 ei 0.104 es 0.000 et 0.001 er 0.004] ------- [11:255 -1:255 27 0] [0x2 4 1 [15 0] [1 4]] (REQUEST)
D 0.124760598 _24_ MAC  COL 0 AODV 106 [0 ffffffff b 800] [energy 89.888557 ei 0.108 es 0.000 et 0.000 er 0.003] ------- [11:255 -1:255 27 0] [0x2 4 1 [15 0] [1 4]] (REQUEST)
D 0.124760621 _38_ MAC  COL 0 AODV 106 [0 ffffffff 14 800] [energy 89.891141 ei 0.104 es 0.000 et 0.001 er 0.004] ------- [20:255 -1:255 28 0] [0x2 3 1 [15 0] [1 4]] (REQUEST)
D 0.124760884 _14_ MAC  COL 0 AODV 106 [0 ffffffff b 800] [energy 89.891141 ei 0.104 es 0.000 et 0.001 er 0.004] ------- [11:255 -1:255 27 0] [0x2 4 1 [15 0] [1 4]] (REQUEST)
D 0.124760925 _8_ MAC  COL 0 AODV 106 [0 ffffffff b 800] [energy 89.891141 ei 0.104 es 0.000 et 0.001 er 0.004] ------- [11:255 -1:255 27 0] [0x2 4 1 [15 0] [1 4]] (REQUEST)
D 0.125607918 _27_ MAC  COL 0 AODV 106 [0 ffffffff 1d 800] [energy 89.891291 ei 0.105 es 0.000 et 0.000 er 0.004] ------- [29:255 -1:255 27 0] [0x2 4 1 [15 0] [1 4]] (REQUEST)
D 0.125607956 _22_ MAC  COL 0 AODV 106 [0 ffffffff 1d 800] [energy 89.891991 ei 0.104 es 0.000 et 0.000 er 0.004] ------- [29:255 -1:255 27 0] [0x2 4 1 [15 0] [1 4]] (REQUEST)
D 0.125608099 _21_ MAC  COL 0 AODV 106 [0 ffffffff 14 800] [energy 89.891991 ei 0.104 es 0.000 et 0.000 er 0.004] ------- [20:255 -1:255 28 0] [0x2 3 1 [15 0] [1 4]] (REQUEST)
D 0.125608109 _31_ MAC  COL 0 AODV 106 [0 ffffffff 14 800] [energy 89.891143 ei 0.104 es 0.000 et 0.001 er 0.004] ------- [20:255 -1:255 28 0] [0x2 3 1 [15 0] [1 4]] (REQUEST)
D 0.125608239 _39_ MAC  COL 0 AODV 106 [0 ffffffff 14 800] [energy 89.891143 ei 0.104 es 0.000 et 0.001 er 0.004] ------- [20:255 -1:255 28 0] [0x2 3 1 [15 0] [1 4]] (REQUEST)
D 0.126990578 _21_ MAC  COL 0 AODV 106 [0 ffffffff 17 800] [energy 89.891405 ei 0.105 es 0.000 et 0.000 er 0.004] ------- [23:255 -1:255 28 0] [0x2 3 1 [15 0] [1 4]] (REQUEST)
D 0.126990585 _31_ MAC  COL 0 AODV 106 [0 ffffffff 17 800] [energy 89.890557 ei 0.105 es 0.000 et 0.001 er 0.004] ------- [23:255 -1:255 28 0] [0x2 3 1 [15 0] [1 4]] (REQUEST)
D 0.126990605 _29_ MAC  COL 0 AODV 106 [0 ffffffff 17 800] [energy 89.890557 ei 0.105 es 0.000 et 0.001 er 0.004] ------- [23:255 -1:255 28 0] [0x2 3 1 [15 0] [1 4]] (REQUEST)
D 0.126990678 _33_ MAC  COL 0 AODV 106 [0 ffffffff 17 800] [energy 89.891404 ei 0.105 es 0.000 et 0.000 er 0.004] ------- [23:255 -1:255 28 0] [0x2 3 1 [15 0] [1 4]] (REQUEST)
D 0.126990684 _39_ MAC  COL 0 AODV 106 [0 ffffffff 17 800] [energy 89.890557 ei 0.105 es 0.000 et 0.001 er 0.004] ------- [23:255 -1:255 28 0] [0x2 3 1 [15 0] [1 4]] (REQUEST)
D 0.126990761 _13_ MAC  COL 0 AODV 106 [0 ffffffff 17 800] [energy 89.890556 ei 0.105 es 0.000 et 0.001 er 0.004] ------- [23:255 -1:255 28 0] [0x2 3 1 [15 0] [1 4]] (REQUEST)
D 0.126990848 _38_ MAC  COL 0 AODV 106 [0 ffffffff 17 800] [energy 89.890556 ei 0.105 es 0.000 et 0.001 er 0.004] ------- [23:255 -1:255 28 0] [0x2 3 1 [15 0] [1 4]] (REQUEST)
D 0.126990911 _22_ MAC  COL 0 AODV 106 [0 ffffffff 17 800] [energy 89.891405 ei 0.105 es 0.000 et 0.000 er 0.004] ------- [23:255 -1:255 28 0] [0x2 3 1 [15 0] [1 4]] (REQUEST)
D 0.126990928 _27_ MAC  COL 0 AODV 106 [0 ffffffff 17 800] [energy 89.890706 ei 0.106 es 0.000 et 0.000 er 0.004] ------- [23:255 -1:255 28 0] [0x2 3 1 [15 0] [1 4]] (REQUEST)
D 0.127342902 _11_ MAC  COL 0 AODV 106 [0 ffffffff 1e 800] [energy 89.890190 ei 0.105 es 0.000 et 0.001 er 0.004] ------- [30:255 -1:255 28 0] [0x2 3 1 [15 0] [1 4]] (REQUEST)
D 0.128189900 _3_ MAC  COL 0 AODV 106 [0 ffffffff 13 800] [energy 89.889978 ei 0.105 es 0.000 et 0.001 er 0.004] ------- [19:255 -1:255 28 0] [0x2 3 1 [15 0] [1 4]] (REQUEST)
D 0.128190018 _9_ MAC  COL 0 AODV 106 [0 ffffffff 13 800] [energy 89.889979 ei 0.105 es 0.000 et 0.001 er 0.004] ------- [19:255 -1:255 28 0] [0x2 3 1 [15 0] [1 4]] (REQUEST)
D 0.128190122 _8_ MAC  COL 0 AODV 106 [0 ffffffff 13 800] [energy 89.890190 ei 0.105 es 0.000 et 0.001 er 0.004] ------- [19:255 -1:255 28 0] [0x2 3 1 [15 0] [1 4]] (REQUEST)
D 0.128190201 _17_ MAC  COL 0 AODV 106 [0 ffffffff 13 800] [energy 89.889978 ei 0.105 es 0.000 et 0.001 er 0.004] ------- [19:255 -1:255 28 0] [0x2 3 1 [15 0] [1 4]] (REQUEST)
D 0.128190351 _14_ MAC  COL 0 AODV 106 [0 ffffffff 13 800] [energy 89.890190 ei 0.105 es 0.000 et 0.001 er 0.004] ------- [19:255 -1:255 28 0] [0x2 3 1 [15 0] [1 4]] (REQUEST)
D 0.128190356 _7_ MAC  COL 0 AODV 106 [0 ffffffff 13 800] [energy 89.890190 ei 0.105 es 0.000 et 0.001 er 0.004] ------- [19:255 -1:255 28 0] [0x2 3 1 [15 0] [1 4]] (REQUEST)
D 0.129573581 _37_ MAC  COL 0 AODV 106 [0 ffffffff 16 800] [energy 89.889507 ei 0.105 es 0.000 et 0.001 er 0.004] ------- [22:255 -1:255 27 0] [0x2 4 1 [15 0] [1 4]] (REQUEST)
D 0.129573635 _39_ MAC  COL 0 AODV 106 [0 ffffffff 16 800] [energy 89.889507 ei 0.105 es 0.000 et 0.001 er 0.004] ------- [22:255 -1:255 27 0] [0x2 4 1 [15 0] [1 4]] (REQUEST)
D 0.129573719 _2_ MAC  COL 0 AODV 106 [0 ffffffff 16 800] [energy 89.889507 ei 0.105 es 0.000 et 0.001 er 0.004] ------- [22:255 -1:255 27 0] [0x2 4 1 [15 0] [1 4]] (REQUEST)
D 0.129573828 _12_ MAC  COL 0 AODV 106 [0 ffffffff 16 800] [energy 89.889507 ei 0.105 es 0.000 et 0.001 er 0.004] ------- [22:255 -1:255 27 0] [0x2 4 1 [15 0] [1 4]] (REQUEST)
D 0.129573961 _26_ MAC  COL 0 AODV 106 [0 ffffffff 16 800] [energy 89.889276 ei 0.106 es 0.000 et 0.001 er 0.004] ------- [22:255 -1:255 27 0] [0x2 4 1 [15 0] [1 4]] (REQUEST)
D 0.129573966 _10_ MAC  COL 0 AODV 106 [0 ffffffff 16 800] [energy 89.889507 ei 0.105 es 0.000 et 0.001 er 0.004] ------- [22:255 -1:255 27 0] [0x2 4 1 [15 0] [1 4]] (REQUEST)
D 0.129573978 _23_ MAC  COL 0 AODV 106 [0 ffffffff 16 800] [energy 89.889276 ei 0.106 es 0.000 et 0.001 er 0.004] ------- [22:255 -1:255 27 0] [0x2 4 1 [15 0] [1 4]] (REQUEST)
D 0.129573979 _7_ MAC  COL 0 AODV 106 [0 ffffffff 16 800] [energy 89.889507 ei 0.105 es 0.000 et 0.001 er 0.004] ------- [22:255 -1:255 27 0] [0x2 4 1 [15 0] [1 4]] (REQUEST)
D 0.214860296 _6_ MAC  COL 0 AODV 106 [0 ffffffff 26 800] [energy 89.844263 ei 0.141 es 0.000 et 0.002 er 0.013] ------- [38:255 -1:255 29 0] [0x2 2 1 [20 0] [15 6]] (REQUEST)
D 0.214860330 _10_ MAC  COL 0 AODV 106 [0 ffffffff 8 800] [energy 89.844263 ei 0.141 es 0.000 et 0.002 er 0.013] ------- [8:255 -1:255 28 0] [0x2 3 1 [20 0] [15 6]] (REQUEST)
D 0.214860438 _1_ MAC  COL 0 AODV 106 [0 ffffffff 8 800] [energy 89.812406 ei 0.141 es 0.000 et 0.039 er 0.007] ------- [8:255 -1:255 28 0] [0x2 3 1 [20 0] [15 6]] (REQUEST)
D 0.214860504 _12_ MAC  COL 0 AODV 106 [0 ffffffff 8 800] [energy 89.844263 ei 0.141 es 0.000 et 0.002 er 0.013] ------- [8:255 -1:255 28 0] [0x2 3 1 [20 0] [15 6]] (REQUEST)
D 0.214860522 _39_ MAC  COL 0 AODV 106 [0 ffffffff 26 800] [energy 89.845111 ei 0.141 es 0.000 et 0.001 er 0.013] ------- [38:255 -1:255 29 0] [0x2 2 1 [20 0] [15 6]] (REQUEST)
D 0.214860558 _16_ MAC  COL 0 AODV 106 [0 ffffffff 8 800] [energy 89.844262 ei 0.141 es 0.000 et 0.002 er 0.013] ------- [8:255 -1:255 28 0] [0x2 3 1 [20 0] [15 6]] (REQUEST)
D 0.214860562 _2_ MAC  COL 0 AODV 106 [0 ffffffff 8 800] [energy 89.845111 ei 0.141 es 0.000 et 0.001 er 0.013] ------- [8:255 -1:255 28 0] [0x2 3 1 [20 0] [15 6]] (REQUEST)
D 0.214860565 _37_ MAC  COL 0 AODV 106 [0 ffffffff 8 800] [energy 89.845111 ei 0.141 es 0.000 et 0.001 er 0.013] ------- [8:255 -1:255 28 0] [0x2 3 1 [20 0] [15 6]] (REQUEST)
D 0.214860636 _0_ MAC  COL 0 AODV 106 [0 ffffffff 26 800] [energy 89.843562 ei 0.142 es 0.000 et 0.002 er 0.013] ------- [38:255 -1:255 29 0] [0x2 2 1 [20 0] [15 6]] (REQUEST)
D 0.214860642 _32_ MAC  COL 0 AODV 106 [0 ffffffff 8 800] [energy 89.845111 ei 0.141 es 0.000 et 0.001 er 0.013] ------- [8:255 -1:255 28 0] [0x2 3 1 [20 0] [15 6]] (REQUEST)
D 0.214860678 _11_ MAC  COL 0 AODV 106 [0 ffffffff 8 800] [energy 89.845111 ei 0.141 es 0.000 et 0.001 er 0.013] ------- [8:255 -1:255 28 0] [0x2 3 1 [20 0] [15 6]] (REQUEST)
D 0.214860693 _15_ MAC  COL 0 AODV 106 [0 ffffffff 26 800] [energy 89.839514 ei 0.142 es 0.000 et 0.007 er 0.012] ------- [38:255 -1:255 29 0] [0x2 2 1 [20 0] [15 6]] (REQUEST)
D 0.214860715 _31_ MAC  COL 0 AODV 106 [0 ffffffff 26 800] [energy 89.845111 ei 0.141 es 0.000 et 0.001 er 0.013] ------- [38:255 -1:255 29 0] [0x2 2 1 [20 0] [15 6]] (REQUEST)
D 0.214860829 _18_ MAC  COL 0 AODV 106 [0 ffffffff 26 800] [energy 89.842862 ei 0.143 es 0.000 et 0.002 er 0.012] ------- [38:255 -1:255 29 0] [0x2 2 1 [20 0] [15 6]] (REQUEST)
D 0.214860851 _25_ MAC  COL 0 AODV 106 [0 ffffffff 26 800] [energy 89.842862 ei 0.143 es 0.000 et 0.002 er 0.012] ------- [38:255 -1:255 29 0] [0x2 2 1 [20 0] [15 6]] (REQUEST)
D 0.215708296 _6_ MAC  COL 0 AODV 106 [0 ffffffff 8 800] [energy 89.844263 ei 0.141 es 0.000 et 0.002 er 0.013] ------- [8:255 -1:255 28 0] [0x2 3 1 [20 0] [15 6]] (REQUEST)
D 0.215708330 _10_ MAC  COL 0 AODV 106 [0 ffffffff 26 800] [energy 89.844263 ei 0.141 es 0.000 et 0.002 er 0.013] ------- [38:255 -1:255 29 0] [0x2 2 1 [20 0] [15 6]] (REQUEST)
D 0.215708438 _1_ MAC  COL 0 AODV 106 [0 ffffffff 26 800] [energy 89.812406 ei 0.141 es 0.000 et 0.039 er 0.007] ------- [38:255 -1:255 29 0] [0x2 2 1 [20 0] [15 6]] (REQUEST)
D 0.215708504 _12_ MAC  COL 0 AODV 106 [0 ffffffff 26 800] [energy 89.844263 ei 0.141 es 0.000 et 0.002 er 0.013] ------- [38:255 -1:255 29 0] [0x2 2 1 [20 0] [15 6]] (REQUEST)
D 0.219483841 _13_ MAC  COL 0 AODV 106 [0 ffffffff 1c 800] [energy 89.842756 ei 0.142 es 0.000 et 0.002 er 0.013] ------- [28:255 -1:255 28 0] [0x2 3 1 [20 0] [15 6]] (REQUEST)
D 0.219483881 _39_ MAC  COL 0 AODV 106 [0 ffffffff 1c 800] [energy 89.842756 ei 0.142 es 0.000 et 0.002 er 0.013] ------- [28:255 -1:255 28 0] [0x2 3 1 [20 0] [15 6]] (REQUEST)
D 0.219483902 _33_ MAC  COL 0 AODV 106 [0 ffffffff 1c 800] [energy 89.842756 ei 0.142 es 0.000 et 0.002 er 0.013] ------- [28:255 -1:255 28 0] [0x2 3 1 [20 0] [15 6]] (REQUEST)
D 0.220331020 _16_ MAC  COL 0 AODV 106 [0 ffffffff 11 800] [energy 89.842754 ei 0.142 es 0.000 et 0.002 er 0.013] ------- [17:255 -1:255 29 0] [0x2 2 1 [20 0] [15 6]] (REQUEST)
D 0.220331052 _1_ MAC  COL 0 AODV 106 [0 ffffffff 11 800] [energy 89.810898 ei 0.142 es 0.000 et 0.039 er 0.008] ------- [17:255 -1:255 29 0] [0x2 2 1 [20 0] [15 6]] (REQUEST)
D 0.220331274 _8_ MAC  COL 0 AODV 106 [0 ffffffff 11 800] [energy 89.842755 ei 0.142 es 0.000 et 0.002 er 0.013] ------- [17:255 -1:255 29 0] [0x2 2 1 [20 0] [15 6]] (REQUEST)