D 0.107066988 _5_ MAC  COL 0 AODV 106 [0 ffffffff 23 800] [energy 89.897576 ei 0.101 es 0.000 et 0.000 er 0.001] ------- [35:255 -1:255 29 0] [0x2 2 1 [15 0] [1 4]] (REQUEST)
D 0.107067240 _6_ MAC  COL 0 AODV 106 [0 ffffffff 23 800] [energy 89.897576 ei 0.101 es 0.000 et 0.000 er 0.001] ------- [35:255 -1:255 29 0] [0x2 2 1 [15 0] [1 4]] (REQUEST)
D 0.107067459 _1_ MAC  COL 0 AODV 106 [0 ffffffff 23 800] [energy 89.895080 ei 0.101 es 0.000 et 0.003 er 0.001] ------- [35:255 -1:255 29 0] [0x2 2 1 [15 0] [1 4]] (REQUEST)
D 0.107067539 _39_ MAC  COL 0 AODV 106 [0 ffffffff 24 800] [energy 89.897576 ei 0.101 es 0.000 et 0.000 er 0.001] ------- [36:255 -1:255 29 0] [0x2 2 1 [15 0] [1 4]] (REQUEST)
D 0.107067575 _16_ MAC  COL 0 AODV 106 [0 ffffffff 23 800] [energy 89.897576 ei 0.101 es 0.000 et 0.000 er 0.001] ------- [35:255 -1:255 29 0] [0x2 2 1 [15 0] [1 4]] (REQUEST)
D 0.107067757 _26_ MAC  COL 0 AODV 106 [0 ffffffff 24 800] [energy 89.897576 ei 0.101 es 0.000 et 0.000 er 0.001] ------- [36:255 -1:255 29 0] [0x2 2 1 [15 0] [1 4]] (REQUEST)
D 0.107914988 _5_ MAC  COL 0 AODV 106 [0 ffffffff 24 800] [energy 89.897576 ei 0.101 es 0.000 et 0.000 er 0.001] ------- [36:255 -1:255 29 0] [0x2 2 1 [15 0] [1 4]] (REQUEST)
D 0.107915240 _6_ MAC  COL 0 AODV 106 [0 ffffffff 24 800] [energy 89.897576 ei 0.101 es 0.000 et 0.000 er 0.001] ------- [36:255 -1:255 29 0] [0x2 2 1 [15 0] [1 4]] (REQUEST)
D 0.107915407 _10_ MAC  COL 0 AODV 106 [0 ffffffff 24 800] [energy 89.897576 ei 0.101 es 0.000 et 0.000 er 0.001] ------- [36:255 -1:255 29 0] [0x2 2 1 [15 0] [1 4]] (REQUEST)
D 0.107915459 _1_ MAC  COL 0 AODV 106 [0 ffffffff 24 800] [energy 89.895080 ei 0.101 es 0.000 et 0.003 er 0.001] ------- [36:255 -1:255 29 0] [0x2 2 1 [15 0] [1 4]] (REQUEST)
D 0.107915575 _16_ MAC  COL 0 AODV 106 [0 ffffffff 24 800] [energy 89.897576 ei 0.101 es 0.000 et 0.000 er 0.001] ------- [36:255 -1:255 29 0] [0x2 2 1 [15 0] [1 4]] (REQUEST)
D 0.107915592 _12_ MAC  COL 0 AODV 106 [0 ffffffff 24 800] [energy 89.897576 ei 0.101 es 0.000 et 0.000 er 0.001] ------- [36:255 -1:255 29 0] [0x2 2 1 [15 0] [1 4]] (REQUEST)
D 0.111145913 _1_ MAC  COL 0 AODV 106 [0 ffffffff a 800] [energy 89.893800 ei 0.102 es 0.000 et 0.003 er 0.001] ------- [10:255 -1:255 29 0] [0x2 2 1 [15 0] [1 4]] (REQUEST)
D 0.111145913 _5_ MAC  COL 0 AODV 106 [0 ffffffff a 800] [energy 89.896296 ei 0.102 es 0.000 et 0.000 er 0.002] ------- [10:255 -1:255 29 0] [0x2 2 1 [15 0] [1 4]] (REQUEST)
D 0.111146002 _16_ MAC  COL 0 AODV 106 [0 ffffffff 29 800] [energy 89.896296 ei 0.102 es 0.000 et 0.000 er 0.002] ------- [41:255 -1:255 29 0] [0x2 2 1 [15 0] [1 4]] (REQUEST)
D 0.111146053 _36_ MAC  COL 0 AODV 106 [0 ffffffff a 800] [energy 89.895448 ei 0.102 es 0.000 et 0.001 er 0.002] ------- [10:255 -1:255 29 0] [0x2 2 1 [15 0] [1 4]] (REQUEST)
D 0.111146133 _38_ MAC  COL 0 AODV 106 [0 ffffffff a 800] [energy 89.895448 ei 0.102 es 0.000 et 0.001 er 0.002] ------- [10:255 -1:255 29 0] [0x2 2 1 [15 0] [1 4]] (REQUEST)
D 0.111146219 _17_ MAC  COL 0 AODV 106 [0 ffffffff a 800] [energy 89.896296 ei 0.102 es 0.000 et 0.000 er 0.002] ------- [10:255 -1:255 29 0] [0x2 2 1 [15 0] [1 4]] (REQUEST)
D 0.111146219 _13_ MAC  COL 0 AODV 106 [0 ffffffff a 800] [energy 89.896296 ei 0.102 es 0.000 et 0.000 er 0.002] ------- [10:255 -1:255 29 0] [0x2 2 1 [15 0] [1 4]] (REQUEST)
D 0.111146303 _33_ MAC  COL 0 AODV 106 [0 ffffffff a 800] [energy 89.896296 ei 0.102 es 0.000 et 0.000 er 0.002] ------- [10:255 -1:255 29 0] [0x2 2 1 [15 0] [1 4]] (REQUEST)
D 0.111146564 _3_ MAC  COL 0 AODV 106 [0 ffffffff a 800] [energy 89.896296 ei 0.102 es 0.000 et 0.000 er 0.002] ------- [10:255 -1:255 29 0] [0x2 2 1 [15 0] [1 4]] (REQUEST)
D 0.111993913 _1_ MAC  COL 0 AODV 106 [0 ffffffff 29 800] [energy 89.893800 ei 0.102 es 0.000 et 0.003 er 0.001] ------- [41:255 -1:255 29 0] [0x2 2 1 [15 0] [1 4]] (REQUEST)
D 0.111993913 _5_ MAC  COL 0 AODV 106 [0 ffffffff 29 800] [energy 89.896296 ei 0.102 es 0.000 et 0.000 er 0.002] ------- [41:255 -1:255 29 0] [0x2 2 1 [15 0] [1 4]] (REQUEST)
D 0.111994002 _16_ MAC  COL 0 AODV 106 [0 ffffffff a 800] [energy 89.896296 ei 0.102 es 0.000 et 0.000 er 0.002] ------- [10:255 -1:255 29 0] [0x2 2 1 [15 0] [1 4]] (REQUEST)
D 0.111994053 _36_ MAC  COL 0 AODV 106 [0 ffffffff 29 800] [energy 89.895448 ei 0.102 es 0.000 et 0.001 er 0.002] ------- [41:255 -1:255 29 0] [0x2 2 1 [15 0] [1 4]] (REQUEST)
D 0.111994133 _38_ MAC  COL 0 AODV 106 [0 ffffffff 29 800] [energy 89.895448 ei 0.102 es 0.000 et 0.001 er 0.002] ------- [41:255 -1:255 29 0] [0x2 2 1 [15 0] [1 4]] (REQUEST)
D 0.112428988 _3_ MAC  COL 0 AODV 106 [0 ffffffff 11 800] [energy 89.895713 ei 0.102 es 0.000 et 0.000 er 0.002] ------- [17:255 -1:255 29 0] [0x2 2 1 [15 0] [1 4]] (REQUEST)
D 0.112429127 _4_ MAC  COL 0 AODV 106 [0 ffffffff 11 800] [energy 89.895713 ei 0.102 es 0.000 et 0.000 er 0.002] ------- [17:255 -1:255 29 0] [0x2 2 1 [15 0] [1 4]] (REQUEST)
D 0.112429127 _12_ MAC  COL 0 AODV 106 [0 ffffffff 11 800] [energy 89.894865 ei 0.102 es 0.000 et 0.001 er 0.002] ------- [17:255 -1:255 29 0] [0x2 2 1 [15 0] [1 4]] (REQUEST)
D 0.112429202 _10_ MAC  COL 0 AODV 106 [0 ffffffff 11 800] [energy 89.894865 ei 0.102 es 0.000 et 0.001 er 0.002] ------- [17:255 -1:255 29 0] [0x2 2 1 [15 0] [1 4]] (REQUEST)
D 0.112429242 _19_ MAC  COL 0 AODV 106 [0 ffffffff 11 800] [energy 89.895713 ei 0.102 es 0.000 et 0.000 er 0.002] ------- [17:255 -1:255 29 0] [0x2 2 1 [15 0] [1 4]] (REQUEST)
D 0.112429369 _6_ MAC  COL 0 AODV 106 [0 ffffffff 11 800] [energy 89.894865 ei 0.102 es 0.000 et 0.001 er 0.002] ------- [17:255 -1:255 29 0] [0x2 2 1 [15 0] [1 4]] (REQUEST)
D 0.112429655 _5_ MAC  COL 0 AODV 106 [0 ffffffff 11 800] [energy 89.895712 ei 0.102 es 0.000 et 0.000 er 0.002] ------- [17:255 -1:255 29 0] [0x2 2 1 [15 0] [1 4]] (REQUEST)
D 0.112429709 _0_ MAC  COL 0 AODV 106 [0 ffffffff 11 800] [energy 89.894865 ei 0.102 es 0.000 et 0.001 er 0.002] ------- [17:255 -1:255 29 0] [0x2 2 1 [15 0] [1 4]] (REQUEST)
D 0.112429766 _15_ MAC  COL 0 AODV 106 [0 ffffffff 11 800] [energy 89.893249 ei 0.102 es 0.000 et 0.003 er 0.001] ------- [17:255 -1:255 29 0] [0x2 2 1 [15 0] [1 4]] (REQUEST)
D 0.112429903 _18_ MAC  COL 0 AODV 106 [0 ffffffff 11 800] [energy 89.895713 ei 0.102 es 0.000 et 0.000 er 0.002] ------- [17:255 -1:255 29 0] [0x2 2 1 [15 0] [1 4]] (REQUEST)
D 0.112429924 _25_ MAC  COL 0 AODV 106 [0 ffffffff 11 800] [energy 89.895713 ei 0.102 es 0.000 et 0.000 er 0.002] ------- [17:255 -1:255 29 0] [0x2 2 1 [15 0] [1 4]] (REQUEST)
D 0.113276988 _3_ MAC  COL 0 AODV 106 [0 ffffffff 8 800] [energy 89.895713 ei 0.102 es 0.000 et 0.000 er 0.002] ------- [8:255 -1:255 29 0] [0x2 2 1 [15 0] [1 4]] (REQUEST)
D 0.113277127 _4_ MAC  COL 0 AODV 106 [0 ffffffff 8 800] [energy 89.895713 ei 0.102 es 0.000 et 0.000 er 0.002] ------- [8:255 -1:255 29 0] [0x2 2 1 [15 0] [1 4]] (REQUEST)
D 0.113277127 _12_ MAC  COL 0 AODV 106 [0 ffffffff 8 800] [energy 89.894865 ei 0.102 es 0.000 et 0.001 er 0.002] ------- [8:255 -1:255 29 0] [0x2 2 1 [15 0] [1 4]] (REQUEST)
D 0.113277187 _2_ MAC  COL 0 AODV 106 [0 ffffffff 8 800] [energy 89.895713 ei 0.102 es 0.000 et 0.000 er 0.002] ------- [8:255 -1:255 29 0] [0x2 2 1 [15 0] [1 4]] (REQUEST)
D 0.113277202 _10_ MAC  COL 0 AODV 106 [0 ffffffff 8 800] [energy 89.894865 ei 0.102 es 0.000 et 0.001 er 0.002] ------- [8:255 -1:255 29 0] [0x2 2 1 [15 0] [1 4]] (REQUEST)
D 0.113277242 _19_ MAC  COL 0 AODV 106 [0 ffffffff 8 800] [energy 89.895713 ei 0.102 es 0.000 et 0.000 er 0.002] ------- [8:255 -1:255 29 0] [0x2 2 1 [15 0] [1 4]] (REQUEST)
D 0.113277324 _37_ MAC  COL 0 AODV 106 [0 ffffffff 8 800] [energy 89.895713 ei 0.102 es 0.000 et 0.000 er 0.002] ------- [8:255 -1:255 29 0] [0x2 2 1 [15 0] [1 4]] (REQUEST)
D 0.113277369 _6_ MAC  COL 0 AODV 106 [0 ffffffff 8 800] [energy 89.894865 ei 0.102 es 0.000 et 0.001 er 0.002] ------- [8:255 -1:255 29 0] [0x2 2 1 [15 0] [1 4]] (REQUEST)
D 0.113277444 _11_ MAC  COL 0 AODV 106 [0 ffffffff 8 800] [energy 89.895713 ei 0.102 es 0.000 et 0.000 er 0.002] ------- [8:255 -1:255 29 0] [0x2 2 1 [15 0] [1 4]] (REQUEST)
D 0.113277476 _32_ MAC  COL 0 AODV 106 [0 ffffffff 8 800] [energy 89.895713 ei 0.102 es 0.000 et 0.000 er 0.002] ------- [8:255 -1:255 29 0] [0x2 2 1 [15 0] [1 4]] (REQUEST)
D 0.124833320 _15_ MAC  COL 0 AODV 106 [0 ffffffff 19 800] [energy 89.889623 ei 0.103 es 0.000 et 0.004 er 0.003] ------- [25:255 -1:255 29 0] [0x2 2 1 [15 0] [1 4]] (REQUEST)
D 0.124833352 _0_ MAC  COL 0 AODV 106 [0 ffffffff 19 800] [energy 89.891847 ei 0.103 es 0.000 et 0.001 er 0.004] ------- [25:255 -1:255 29 0] [0x2 2 1 [15 0] [1 4]] (REQUEST)
D 0.124833470 _6_ MAC  COL 0 AODV 106 [0 ffffffff 10 800] [energy 89.891846 ei 0.103 es 0.000 et 0.001 er 0.004] ------- [16:255 -1:255 29 0] [0x2 2 1 [15 0] [1 4]] (REQUEST)
D 0.124833573 _5_ MAC  COL 0 AODV 106 [0 ffffffff 19 800] [energy 89.892694 ei 0.103 es 0.000 et 0.000 er 0.004] ------- [25:255 -1:255 29 0] [0x2 2 1 [15 0] [1 4]] (REQUEST)
D 0.124833786 _36_ MAC  COL 0 AODV 106 [0 ffffffff 19 800] [energy 89.891846 ei 0.103 es 0.000 et 0.001 er 0.004] ------- [25:255 -1:255 29 0] [0x2 2 1 [15 0] [1 4]] (REQUEST)
D 0.124833794 _10_ MAC  COL 0 AODV 106 [0 ffffffff 10 800] [energy 89.891846 ei 0.103 es 0.000 et 0.001 er 0.004] ------- [16:255 -1:255 29 0] [0x2 2 1 [15 0] [1 4]] (REQUEST)
D 0.124833862 _38_ MAC  COL 0 AODV 106 [0 ffffffff 19 800] [energy 89.891845 ei 0.103 es 0.000 et 0.001 er 0.004] ------- [25:255 -1:255 29 0] [0x2 2 1 [15 0] [1 4]] (REQUEST)
D 0.124833935 _13_ MAC  COL 0 AODV 106 [0 ffffffff 19 800] [energy 89.891845 ei 0.103 es 0.000 et 0.001 er 0.004] ------- [25:255 -1:255 29 0] [0x2 2 1 [15 0] [1 4]] (REQUEST)
D 0.124833998 _3_ MAC  COL 0 AODV 106 [0 ffffffff 10 800] [energy 89.892694 ei 0.103 es 0.000 et 0.000 er 0.004] ------- [16:255 -1:255 29 0] [0x2 2 1 [15 0] [1 4]] (REQUEST)
D 0.124834089 _8_ MAC  COL 0 AODV 106 [0 ffffffff 10 800] [energy 89.891846 ei 0.103 es 0.000 et 0.001 er 0.004] ------- [16:255 -1:255 29 0] [0x2 2 1 [15 0] [1 4]] (REQUEST)
D 0.125681320 _15_ MAC  COL 0 AODV 106 [0 ffffffff 10 800] [energy 89.889623 ei 0.103 es 0.000 et 0.004 er 0.003] ------- [16:255 -1:255 29 0] [0x2 2 1 [15 0] [1 4]] (REQUEST)
D 0.125681352 _0_ MAC  COL 0 AODV 106 [0 ffffffff 10 800] [energy 89.891847 ei 0.103 es 0.000 et 0.001 er 0.004] ------- [16:255 -1:255 29 0] [0x2 2 1 [15 0] [1 4]] (REQUEST)
D 0.125681470 _6_ MAC  COL 0 AODV 106 [0 ffffffff 19 800] [energy 89.891846 ei 0.103 es 0.000 et 0.001 er 0.004] ------- [25:255 -1:255 29 0] [0x2 2 1 [15 0] [1 4]] (REQUEST)
D 0.125681573 _5_ MAC  COL 0 AODV 106 [0 ffffffff 10 800] [energy 89.892694 ei 0.103 es 0.000 et 0.000 er 0.004] ------- [16:255 -1:255 29 0] [0x2 2 1 [15 0] [1 4]] (REQUEST)
D 0.125681786 _36_ MAC  COL 0 AODV 106 [0 ffffffff 10 800] [energy 89.891846 ei 0.103 es 0.000 et 0.001 er 0.004] ------- [16:255 -1:255 29 0] [0x2 2 1 [15 0] [1 4]] (REQUEST)
D 0.126097362 _11_ MAC  COL 0 AODV 106 [0 ffffffff 1d 800] [energy 89.891282 ei 0.104 es 0.000 et 0.001 er 0.004] ------- [29:255 -1:255 27 0] [0x2 4 1 [15 0] [1 4]] (REQUEST)
D 0.126097444 _2_ MAC  COL 0 AODV 106 [0 ffffffff 9 800] [energy 89.892130 ei 0.104 es 0.000 et 0.000 er 0.004] ------- [9:255 -1:255 28 0] [0x2 3 1 [15 0] [1 4]] (REQUEST)
D 0.126097527 _12_ MAC  COL 0 AODV 106 [0 ffffffff 9 800] [energy 89.891282 ei 0.104 es 0.000 et 0.001 er 0.004] ------- [9:255 -1:255 28 0] [0x2 3 1 [15 0] [1 4]] (REQUEST)
D 0.126945305 _37_ MAC  COL 0 AODV 106 [0 ffffffff 1d 800] [energy 89.892130 ei 0.104 es 0.000 et 0.000 er 0.004] ------- [29:255 -1:255 27 0] [0x2 4 1 [15 0] [1 4]] (REQUEST)
D 0.126945444 _2_ MAC  COL 0 AODV 106 [0 ffffffff 1d 800] [energy 89.892130 ei 0.104 es 0.000 et 0.000 er 0.004] ------- [29:255 -1:255 27 0] [0x2 4 1 [15 0] [1 4]] (REQUEST)
D 0.127380643 _37_ MAC  COL 0 AODV 106 [0 ffffffff 18 800] [energy 89.891546 ei 0.104 es 0.000 et 0.000 er 0.004] ------- [24:255 -1:255 27 0] [0x2 4 1 [15 0] [1 4]] (REQUEST)
D 0.127380669 _11_ MAC  COL 0 AODV 106 [0 ffffffff 18 800] [energy 89.890698 ei 0.104 es 0.000 et 0.001 er 0.004] ------- [24:255 -1:255 27 0] [0x2 4 1 [15 0] [1 4]] (REQUEST)
D 0.127380719 _32_ MAC  COL 0 AODV 106 [0 ffffffff 18 800] [energy 89.891546 ei 0.104 es 0.000 et 0.000 er 0.004] ------- [24:255 -1:255 27 0] [0x2 4 1 [15 0] [1 4]] (REQUEST)
D 0.127380875 _22_ MAC  COL 0 AODV 106 [0 ffffffff 18 800] [energy 89.891547 ei 0.104 es 0.000 et 0.000 er 0.004] ------- [24:255 -1:255 27 0] [0x2 4 1 [15 0] [1 4]] (REQUEST)
D 0.127380997 _27_ MAC  COL 0 AODV 106 [0 ffffffff 18 800] [energy 89.891546 ei 0.104 es 0.000 et 0.000 er 0.004] ------- [24:255 -1:255 27 0] [0x2 4 1 [15 0] [1 4]] (REQUEST)
D 0.128228569 _2_ MAC  COL 0 AODV 106 [0 ffffffff e 800] [energy 89.891546 ei 0.104 es 0.000 et 0.000 er 0.004] ------- [14:255 -1:255 28 0] [0x2 3 1 [15 0] [1 4]] (REQUEST)
D 0.128228599 _12_ MAC  COL 0 AODV 106 [0 ffffffff e 800] [energy 89.890698 ei 0.104 es 0.000 et 0.001 er 0.004] ------- [14:255 -1:255 28 0] [0x2 3 1 [15 0] [1 4]] (REQUEST)
D 0.128228643 _37_ MAC  COL 0 AODV 106 [0 ffffffff e 800] [energy 89.891546 ei 0.104 es 0.000 et 0.000 er 0.004] ------- [14:255 -1:255 28 0] [0x2 3 1 [15 0] [1 4]] (REQUEST)
D 0.128228669 _11_ MAC  COL 0 AODV 106 [0 ffffffff e 800] [energy 89.890698 ei 0.104 es 0.000 et 0.001 er 0.004] ------- [14:255 -1:255 28 0] [0x2 3 1 [15 0] [1 4]] (REQUEST)
D 0.128228719 _32_ MAC  COL 0 AODV 106 [0 ffffffff e 800] [energy 89.891546 ei 0.104 es 0.000 et 0.000 er 0.004] ------- [14:255 -1:255 28 0] [0x2 3 1 [15 0] [1 4]] (REQUEST)
D 0.128724309 _38_ MAC  COL 0 AODV 106 [0 ffffffff 1a 800] [energy 89.890054 ei 0.105 es 0.000 et 0.001 er 0.004] ------- [26:255 -1:255 28 0] [0x2 3 1 [15 0] [1 4]] (REQUEST)
D 0.128724395 _22_ MAC  COL 0 AODV 106 [0 ffffffff 1a 800] [energy 89.890903 ei 0.105 es 0.000 et 0.000 er 0.004] ------- [26:255 -1:255 28 0] [0x2 3 1 [15 0] [1 4]] (REQUEST)
D 0.128724551 _2_ MAC  COL 0 AODV 106 [0 ffffffff 3 800] [energy 89.890903 ei 0.105 es 0.000 et 0.000 er 0.004] ------- [3:255 -1:255 29 0] [0x2 2 1 [15 0] [1 4]] (REQUEST)
D 0.128724551 _10_ MAC  COL 0 AODV 106 [0 ffffffff 3 800] [energy 89.890055 ei 0.105 es 0.000 et 0.001 er 0.004] ------- [3:255 -1:255 29 0] [0x2 2 1 [15 0] [1 4]] (REQUEST)
D 0.128724585 _12_ MAC  COL 0 AODV 106 [0 ffffffff 3 800] [energy 89.890055 ei 0.105 es 0.000 et 0.001 er 0.004] ------- [3:255 -1:255 29 0] [0x2 2 1 [15 0] [1 4]] (REQUEST)
D 0.128724659 _6_ MAC  COL 0 AODV 106 [0 ffffffff 3 800] [energy 89.890055 ei 0.105 es 0.000 et 0.001 er 0.004] ------- [3:255 -1:255 29 0] [0x2 2 1 [15 0] [1 4]] (REQUEST)
D 0.129572377 _36_ MAC  COL 0 AODV 106 [0 ffffffff 1a 800] [energy 89.890054 ei 0.105 es 0.000 et 0.001 er 0.004] ------- [26:255 -1:255 28 0] [0x2 3 1 [15 0] [1 4]] (REQUEST)
D 0.130660704 _27_ MAC  COL 0 AODV 106 [0 ffffffff 1f 800] [energy 89.890365 ei 0.105 es 0.000 et 0.000 er 0.005] ------- [31:255 -1:255 28 0] [0x2 3 1 [15 0] [1 4]] (REQUEST)
D 0.130660791 _32_ MAC  COL 0 AODV 106 [0 ffffffff 1f 800] [energy 89.890365 ei 0.105 es 0.000 et 0.000 er 0.005] ------- [31:255 -1:255 28 0] [0x2 3 1 [15 0] [1 4]] (REQUEST)
D 0.130660809 _11_ MAC  COL 0 AODV 106 [0 ffffffff 1f 800] [energy 89.889517 ei 0.105 es 0.000 et 0.001 er 0.004] ------- [31:255 -1:255 28 0] [0x2 3 1 [15 0] [1 4]] (REQUEST)
D 0.130660912 _29_ MAC  COL 0 AODV 106 [0 ffffffff 1f 800] [energy 89.889519 ei 0.105 es 0.000 et 0.001 er 0.004] ------- [31:255 -1:255 28 0] [0x2 3 1 [15 0] [1 4]] (REQUEST)
D 0.130660961 _37_ MAC  COL 0 AODV 106 [0 ffffffff 1f 800] [energy 89.890365 ei 0.105 es 0.000 et 0.000 er 0.005] ------- [31:255 -1:255 28 0] [0x2 3 1 [15 0] [1 4]] (REQUEST)
D 0.130661014 _39_ MAC  COL 0 AODV 106 [0 ffffffff 1f 800] [energy 89.890365 ei 0.105 es 0.000 et 0.000 er 0.005] ------- [31:255 -1:255 28 0] [0x2 3 1 [15 0] [1 4]] (REQUEST)
D 0.130661038 _23_ MAC  COL 0 AODV 106 [0 ffffffff 1f 800] [energy 89.890367 ei 0.105 es 0.000 et 0.000 er 0.005] ------- [31:255 -1:255 28 0] [0x2 3 1 [15 0] [1 4]] (REQUEST)
D 0.130661038 _26_ MAC  COL 0 AODV 106 [0 ffffffff 1f 800] [energy 89.889519 ei 0.105 es 0.000 et 0.001 er 0.004] ------- [31:255 -1:255 28 0] [0x2 3 1 [15 0] [1 4]] (REQUEST)
D 0.130661057 _20_ MAC  COL 0 AODV 106 [0 ffffffff 1f 800] [energy 89.890367 ei 0.105 es 0.000 et 0.000 er 0.005] ------- [31:255 -1:255 28 0] [0x2 3 1 [15 0] [1 4]] (REQUEST)
D 0.130661099 _2_ MAC  COL 0 AODV 106 [0 ffffffff 1f 800] [energy 89.890365 ei 0.105 es 0.000 et 0.000 er 0.005] ------- [31:255 -1:255 28 0] [0x2 3 1 [15 0] [1 4]] (REQUEST)
D 0.130661132 _10_ MAC  COL 0 AODV 106 [0 ffffffff 1f 800] [energy 89.889518 ei 0.105 es 0.000 et 0.001 er 0.004] ------- [31:255 -1:255 28 0] [0x2 3 1 [15 0] [1 4]] (REQUEST)
D 0.130661201 _28_ MAC  COL 0 AODV 106 [0 ffffffff 1f 800] [energy 89.889517 ei 0.105 es 0.000 et 0.001 er 0.004] ------- [31:255 -1:255 28 0] [0x2 3 1 [15 0] [1 4]] (REQUEST)
D 0.130661202 _6_ MAC  COL 0 AODV 106 [0 ffffffff 21 800] [energy 89.889517 ei 0.105 es 0.000 et 0.001 er 0.004] ------- [33:255 -1:255 28 0] [0x2 3 1 [15 0] [1 4]] (REQUEST)
D 0.130661207 _12_ MAC  COL 0 AODV 106 [0 ffffffff 1f 800] [energy 89.889518 ei 0.105 es 0.000 et 0.001 er 0.004] ------- [31:255 -1:255 28 0] [0x2 3 1 [15 0] [1 4]] (REQUEST)
D 0.130661207 _20_ MAC  COL 0 AODV 106 [0 ffffffff 21 800] [energy 89.890367 ei 0.105 es 0.000 et 0.000 er 0.005] ------- [33:255 -1:255 28 0] [0x2 3 1 [15 0] [1 4]] (REQUEST)
D 0.130661254 _24_ MAC  COL 0 AODV 106 [0 ffffffff 16 800] [energy 89.886283 ei 0.109 es 0.000 et 0.001 er 0.004] ------- [22:255 -1:255 28 0] [0x2 3 1 [15 0] [1 4]] (REQUEST)
D 0.130661275 _12_ MAC  COL 0 AODV 106 [0 ffffffff 16 800] [energy 89.889518 ei 0.105 es 0.000 et 0.001 er 0.004] ------- [22:255 -1:255 28 0] [0x2 3 1 [15 0] [1 4]] (REQUEST)
D 0.130661312 _2_ MAC  COL 0 AODV 106 [0 ffffffff 16 800] [energy 89.890365 ei 0.105 es 0.000 et 0.000 er 0.005] ------- [22:255 -1:255 28 0] [0x2 3 1 [15 0] [1 4]] (REQUEST)
D 0.130661341 _26_ MAC  COL 0 AODV 106 [0 ffffffff 21 800] [energy 89.889519 ei 0.105 es 0.000 et 0.001 er 0.004] ------- [33:255 -1:255 28 0] [0x2 3 1 [15 0] [1 4]] (REQUEST)
D 0.130661345 _10_ MAC  COL 0 AODV 106 [0 ffffffff 21 800] [energy 89.889518 ei 0.105 es 0.000 et 0.001 er 0.004] ------- [33:255 -1:255 28 0] [0x2 3 1 [15 0] [1 4]] (REQUEST)
D 0.130661357 _23_ MAC  COL 0 AODV 106 [0 ffffffff 21 800] [energy 89.890367 ei 0.105 es 0.000 et 0.000 er 0.005] ------- [33:255 -1:255 28 0] [0x2 3 1 [15 0] [1 4]] (REQUEST)
D 0.130661373 _28_ MAC  COL 0 AODV 106 [0 ffffffff 21 800] [energy 89.889517 ei 0.105 es 0.000 et 0.001 er 0.004] ------- [33:255 -1:255 28 0] [0x2 3 1 [15 0] [1 4]] (REQUEST)
D 0.130661527 _7_ MAC  COL 0 AODV 106 [0 ffffffff 16 800] [energy 89.890366 ei 0.105 es 0.000 et 0.000 er 0.005] ------- [22:255 -1:255 28 0] [0x2 3 1 [15 0] [1 4]] (REQUEST)
D 0.130661544 _0_ MAC  COL 0 AODV 106 [0 ffffffff 21 800] [energy 89.889518 ei 0.105 es 0.000 et 0.001 er 0.004] ------- [33:255 -1:255 28 0] [0x2 3 1 [15 0] [1 4]] (REQUEST)
D 0.131508704 _27_ MAC  COL 0 AODV 106 [0 ffffffff 16 800] [energy 89.890365 ei 0.105 es 0.000 et 0.000 er 0.005] ------- [22:255 -1:255 28 0] [0x2 3 1 [15 0] [1 4]] (REQUEST)
D 0.131508791 _32_ MAC  COL 0 AODV 106 [0 ffffffff 16 800] [energy 89.890365 ei 0.105 es 0.000 et 0.000 er 0.005] ------- [22:255 -1:255 28 0] [0x2 3 1 [15 0] [1 4]] (REQUEST)
D 0.131508809 _11_ MAC  COL 0 AODV 106 [0 ffffffff 16 800] [energy 89.889517 ei 0.105 es 0.000 et 0.001 er 0.004] ------- [22:255 -1:255 28 0] [0x2 3 1 [15 0] [1 4]] (REQUEST)
D 0.131508912 _29_ MAC  COL 0 AODV 106 [0 ffffffff 16 800] [energy 89.889519 ei 0.105 es 0.000 et 0.001 er 0.004] ------- [22:255 -1:255 28 0] [0x2 3 1 [15 0] [1 4]] (REQUEST)
D 0.131508961 _37_ MAC  COL 0 AODV 106 [0 ffffffff 16 800] [energy 89.890365 ei 0.105 es 0.000 et 0.000 er 0.005] ------- [22:255 -1:255 28 0] [0x2 3 1 [15 0] [1 4]] (REQUEST)
D 0.131509014 _39_ MAC  COL 0 AODV 106 [0 ffffffff 16 800] [energy 89.890365 ei 0.105 es 0.000 et 0.000 er 0.005] ------- [22:255 -1:255 28 0] [0x2 3 1 [15 0] [1 4]] (REQUEST)
D 0.131509207 _20_ MAC  COL 0 AODV 106 [0 ffffffff 16 800] [energy 89.890367 ei 0.105 es 0.000 et 0.000 er 0.005] ------- [22:255 -1:255 28 0] [0x2 3 1 [15 0] [1 4]] (REQUEST)
D 0.131509275 _12_ MAC  COL 0 AODV 106 [0 ffffffff 21 800] [energy 89.889518 ei 0.105 es 0.000 et 0.001 er 0.004] ------- [33:255 -1:255 28 0] [0x2 3 1 [15 0] [1 4]] (REQUEST)
D 0.131509341 _26_ MAC  COL 0 AODV 106 [0 ffffffff 16 800] [energy 89.889519 ei 0.105 es 0.000 et 0.001 er 0.004] ------- [22:255 -1:255 28 0] [0x2 3 1 [15 0] [1 4]] (REQUEST)
D 0.131509345 _10_ MAC  COL 0 AODV 106 [0 ffffffff 16 800] [energy 89.889518 ei 0.105 es 0.000 et 0.001 er 0.004] ------- [22:255 -1:255 28 0] [0x2 3 1 [15 0] [1 4]] (REQUEST)
D 0.131509357 _23_ MAC  COL 0 AODV 106 [0 ffffffff 16 800] [energy 89.890367 ei 0.105 es 0.000 et 0.000 er 0.005] ------- [22:255 -1:255 28 0] [0x2 3 1 [15 0] [1 4]] (REQUEST)
D 0.131509373 _28_ MAC  COL 0 AODV 106 [0 ffffffff 16 800] [energy 89.889517 ei 0.105 es 0.000 et 0.001 er 0.004] ------- [22:255 -1:255 28 0] [0x2 3 1 [15 0] [1 4]] (REQUEST)
D 0.132024403 _7_ MAC  COL 0 AODV 106 [0 ffffffff 4 800] [energy 89.889785 ei 0.105 es 0.000 et 0.000 er 0.005] ------- [4:255 -1:255 27 0] [0x2 4 1 [15 0] [1 4]] (REQUEST)
D 0.132871541 _21_ MAC  COL 0 AODV 106 [0 ffffffff 14 800] [energy 89.888936 ei 0.105 es 0.000 et 0.001 er 0.005] ------- [20:255 -1:255 28 0] [0x2 3 1 [15 0] [1 4]] (REQUEST)
D 0.132871551 _31_ MAC  COL 0 AODV 106 [0 ffffffff 14 800] [energy 89.888936 ei 0.105 es 0.000 et 0.001 er 0.005] ------- [20:255 -1:255 28 0] [0x2 3 1 [15 0] [1 4]] (REQUEST)
D 0.132871578 _29_ MAC  COL 0 AODV 106 [0 ffffffff 14 800] [energy 89.888937 ei 0.105 es 0.000 et 0.001 er 0.005] ------- [20:255 -1:255 28 0] [0x2 3 1 [15 0] [1 4]] (REQUEST)
D 0.132871681 _39_ MAC  COL 0 AODV 106 [0 ffffffff 14 800] [energy 89.889783 ei 0.105 es 0.000 et 0.000 er 0.005] ------- [20:255 -1:255 28 0] [0x2 3 1 [15 0] [1 4]] (REQUEST)
D 0.132871810 _33_ MAC  COL 0 AODV 106 [0 ffffffff 14 800] [energy 89.888936 ei 0.105 es 0.000 et 0.001 er 0.005] ------- [20:255 -1:255 28 0] [0x2 3 1 [15 0] [1 4]] (REQUEST)
D 0.132871874 _22_ MAC  COL 0 AODV 106 [0 ffffffff 14 800] [energy 89.888936 ei 0.105 es 0.000 et 0.001 er 0.005] ------- [20:255 -1:255 28 0] [0x2 3 1 [15 0] [1 4]] (REQUEST)
D 0.132871891 _13_ MAC  COL 0 AODV 106 [0 ffffffff 14 800] [energy 89.888935 ei 0.105 es 0.000 et 0.001 er 0.005] ------- [20:255 -1:255 28 0] [0x2 3 1 [15 0] [1 4]] (REQUEST)
D 0.132871894 _27_ MAC  COL 0 AODV 106 [0 ffffffff 14 800] [energy 89.889783 ei 0.105 es 0.000 et 0.000 er 0.005] ------- [20:255 -1:255 28 0] [0x2 3 1 [15 0] [1 4]] (REQUEST)
D 0.132871919 _32_ MAC  COL 0 AODV 106 [0 ffffffff 14 800] [energy 89.889784 ei 0.105 es 0.000 et 0.000 er 0.005] ------- [20:255 -1:255 28 0] [0x2 3 1 [15 0] [1 4]] (REQUEST)
D 0.132871971 _11_ MAC  COL 0 AODV 106 [0 ffffffff 14 800] [energy 89.888936 ei 0.105 es 0.000 et 0.001 er 0.005] ------- [20:255 -1:255 28 0] [0x2 3 1 [15 0] [1 4]] (REQUEST)
D 0.132871975 _38_ MAC  COL 0 AODV 106 [0 ffffffff 14 800] [energy 89.888935 ei 0.105 es 0.000 et 0.001 er 0.005] ------- [20:255 -1:255 28 0] [0x2 3 1 [15 0] [1 4]] (REQUEST)
D 0.132871995 _37_ MAC  COL 0 AODV 106 [0 ffffffff 14 800] [energy 89.889783 ei 0.105 es 0.000 et 0.000 er 0.005] ------- [20:255 -1:255 28 0] [0x2 3 1 [15 0] [1 4]] (REQUEST)
D 0.134160200 _31_ MAC  COL 0 AODV 106 [0 ffffffff 1e 800] [energy 89.888199 ei 0.106 es 0.000 et 0.001 er 0.005] ------- [30:255 -1:255 27 0] [0x2 4 1 [15 0] [1 4]] (REQUEST)
D 0.134160283 _21_ MAC  COL 0 AODV 106 [0 ffffffff 1e 800] [energy 89.888199 ei 0.106 es 0.000 et 0.001 er 0.005] ------- [30:255 -1:255 27 0] [0x2 4 1 [15 0] [1 4]] (REQUEST)
D 0.134160291 _32_ MAC  COL 0 AODV 106 [0 ffffffff 1e 800] [energy 89.889046 ei 0.106 es 0.000 et 0.000 er 0.005] ------- [30:255 -1:255 27 0] [0x2 4 1 [15 0] [1 4]] (REQUEST)
D 0.134160337 _11_ MAC  COL 0 AODV 106 [0 ffffffff 1e 800] [energy 89.888198 ei 0.106 es 0.000 et 0.001 er 0.005] ------- [30:255 -1:255 27 0] [0x2 4 1 [15 0] [1 4]] (REQUEST)
D 0.134160420 _22_ MAC  COL 0 AODV 106 [0 ffffffff 1e 800] [energy 89.888199 ei 0.106 es 0.000 et 0.001 er 0.005] ------- [30:255 -1:255 27 0] [0x2 4 1 [15 0] [1 4]] (REQUEST)
D 0.134160446 _29_ MAC  COL 0 AODV 106 [0 ffffffff 1e 800] [energy 89.888200 ei 0.106 es 0.000 et 0.001 er 0.005] ------- [30:255 -1:255 27 0] [0x2 4 1 [15 0] [1 4]] (REQUEST)
D 0.134160489 _33_ MAC  COL 0 AODV 106 [0 ffffffff 1e 800] [energy 89.888198 ei 0.106 es 0.000 et 0.001 er 0.005] ------- [30:255 -1:255 27 0] [0x2 4 1 [15 0] [1 4]] (REQUEST)
D 0.134160532 _13_ MAC  COL 0 AODV 106 [0 ffffffff 1e 800] [energy 89.888198 ei 0.106 es 0.000 et 0.001 er 0.005] ------- [30:255 -1:255 27 0] [0x2 4 1 [15 0] [1 4]] (REQUEST)
D 0.134160547 _27_ MAC  COL 0 AODV 106 [0 ffffffff 1e 800] [energy 89.889046 ei 0.106 es 0.000 et 0.000 er 0.005] ------- [30:255 -1:255 27 0] [0x2 4 1 [15 0] [1 4]] (REQUEST)
D 0.134160682 _6_ MAC  COL 0 AODV 106 [0 ffffffff 27 800] [energy 89.888199 ei 0.106 es 0.000 et 0.001 er 0.005] ------- [39:255 -1:255 28 0] [0x2 3 1 [15 0] [1 4]] (REQUEST)
D 0.134160781 _7_ MAC  COL 0 AODV 106 [0 ffffffff 27 800] [energy 89.889048 ei 0.106 es 0.000 et 0.000 er 0.005] ------- [39:255 -1:255 28 0] [0x2 3 1 [15 0] [1 4]] (REQUEST)
D 0.135008200 _31_ MAC  COL 0 AODV 106 [0 ffffffff 27 800] [energy 89.888199 ei 0.106 es 0.000 et 0.001 er 0.005] ------- [39:255 -1:255 28 0] [0x2 3 1 [15 0] [1 4]] (REQUEST)
D 0.135008283 _21_ MAC  COL 0 AODV 106 [0 ffffffff 27 800] [energy 89.888199 ei 0.106 es 0.000 et 0.001 er 0.005] ------- [39:255 -1:255 28 0] [0x2 3 1 [15 0] [1 4]] (REQUEST)
D 0.135008291 _32_ MAC  COL 0 AODV 106 [0 ffffffff 27 800] [energy 89.889046 ei 0.106 es 0.000 et 0.000 er 0.005] ------- [39:255 -1:255 28 0] [0x2 3 1 [15 0] [1 4]] (REQUEST)
D 0.135008337 _11_ MAC  COL 0 AODV 106 [0 ffffffff 27 800] [energy 89.888198 ei 0.106 es 0.000 et 0.001 er 0.005] ------- [39:255 -1:255 28 0] [0x2 3 1 [15 0] [1 4]] (REQUEST)
D 0.135008420 _22_ MAC  COL 0 AODV 106 [0 ffffffff 27 800] [energy 89.888199 ei 0.106 es 0.000 et 0.001 er 0.005] ------- [39:255 -1:255 28 0] [0x2 3 1 [15 0] [1 4]] (REQUEST)
D 0.135008446 _29_ MAC  COL 0 AODV 106 [0 ffffffff 27 800] [energy 89.888200 ei 0.106 es 0.000 et 0.001 er 0.005] ------- [39:255 -1:255 28 0] [0x2 3 1 [15 0] [1 4]] (REQUEST)
D 0.135008489 _33_ MAC  COL 0 AODV 106 [0 ffffffff 27 800] [energy 89.888198 ei 0.106 es 0.000 et 0.001 er 0.005] ------- [39:255 -1:255 28 0] [0x2 3 1 [15 0] [1 4]] (REQUEST)
D 0.135008532 _13_ MAC  COL 0 AODV 106 [0 ffffffff 27 800] [energy 89.888198 ei 0.106 es 0.000 et 0.001 er 0.005] ------- [39:255 -1:255 28 0] [0x2 3 1 [15 0] [1 4]] (REQUEST)
D 0.135008547 _27_ MAC  COL 0 AODV 106 [0 ffffffff 27 800] [energy 89.889046 ei 0.106 es 0.000 et 0.000 er 0.005] ------- [39:255 -1:255 28 0] [0x2 3 1 [15 0] [1 4]] (REQUEST)
D 0.135008584 _38_ MAC  COL 0 AODV 106 [0 ffffffff 27 800] [energy 89.888198 ei 0.106 es 0.000 et 0.001 er 0.005] ------- [39:255 -1:255 28 0] [0x2 3 1 [15 0] [1 4]] (REQUEST)
D 0.135008628 _36_ MAC  COL 0 AODV 106 [0 ffffffff 27 800] [energy 89.888198 ei 0.106 es 0.000 et 0.001 er 0.005] ------- [39:255 -1:255 28 0] [0x2 3 1 [15 0] [1 4]] (REQUEST)
D 0.135008689 _5_ MAC  COL 0 AODV 106 [0 ffffffff 27 800] [energy 89.889046 ei 0.106 es 0.000 et 0.000 er 0.005] ------- [39:255 -1:255 28 0] [0x2 3 1 [15 0] [1 4]] (REQUEST)
D 0.135643712 _13_ MAC  COL 0 AODV 106 [0 ffffffff 12 800] [energy 89.887579 ei 0.106 es 0.000 et 0.001 er 0.005] ------- [18:255 -1:255 29 0] [0x2 2 1 [15 0] [1 4]] (REQUEST)
D 0.135643775 _38_ MAC  COL 0 AODV 106 [0 ffffffff 12 800] [energy 89.887579 ei 0.106 es 0.000 et 0.001 er 0.005] ------- [18:255 -1:255 29 0] [0x2 2 1 [15 0] [1 4]] (REQUEST)
D 0.136362393 _12_ MAC  COL 0 AODV 106 [0 ffffffff 1b 800] [energy 89.887454 ei 0.106 es 0.000 et 0.001 er 0.005] ------- [27:255 -1:255 28 0] [0x2 3 1 [15 0] [1 4]] (REQUEST)
D 0.136490711 _22_ MAC  COL 0 AODV 106 [0 ffffffff 1b 800] [energy 89.887453 ei 0.106 es 0.000 et 0.001 er 0.005] ------- [27:255 -1:255 28 0] [0x2 3 1 [15 0] [1 4]] (REQUEST)
D 0.136490881 _29_ MAC  COL 0 AODV 106 [0 ffffffff 1b 800] [energy 89.887454 ei 0.106 es 0.000 et 0.001 er 0.005] ------- [27:255 -1:255 28 0] [0x2 3 1 [15 0] [1 4]] (REQUEST)
D 0.136490918 _21_ MAC  COL 0 AODV 106 [0 ffffffff 1b 800] [energy 89.887454 ei 0.106 es 0.000 et 0.001 er 0.005] ------- [27:255 -1:255 28 0] [0x2 3 1 [15 0] [1 4]] (REQUEST)
D 0.136490961 _32_ MAC  COL 0 AODV 106 [0 ffffffff 1b 800] [energy 89.888301 ei 0.106 es 0.000 et 0.000 er 0.005] ------- [27:255 -1:255 28 0] [0x2 3 1 [15 0] [1 4]] (REQUEST)
D 0.136490962 _31_ MAC  COL 0 AODV 106 [0 ffffffff 1b 800] [energy 89.887454 ei 0.106 es 0.000 et 0.001 er 0.005] ------- [27:255 -1:255 28 0] [0x2 3 1 [15 0] [1 4]] (REQUEST)
D 0.136490977 _11_ MAC  COL 0 AODV 106 [0 ffffffff 1b 800] [energy 89.887453 ei 0.106 es 0.000 et 0.001 er 0.005] ------- [27:255 -1:255 28 0] [0x2 3 1 [15 0] [1 4]] (REQUEST)
D 0.136491131 _37_ MAC  COL 0 AODV 106 [0 ffffffff 1b 800] [energy 89.888301 ei 0.106 es 0.000 et 0.000 er 0.005] ------- [27:255 -1:255 28 0] [0x2 3 1 [15 0] [1 4]] (REQUEST)
D 0.136491148 _39_ MAC  COL 0 AODV 106 [0 ffffffff 1b 800] [energy 89.887453 ei 0.106 es 0.000 et 0.001 er 0.005] ------- [27:255 -1:255 28 0] [0x2 3 1 [15 0] [1 4]] (REQUEST)
D 0.136491219 _30_ MAC  COL 0 AODV 106 [0 ffffffff 1b 800] [energy 89.887374 ei 0.106 es 0.000 et 0.001 er 0.005] ------- [27:255 -1:255 28 0] [0x2 3 1 [15 0] [1 4]] (REQUEST)
D 0.136491234 _20_ MAC  COL 0 AODV 106 [0 ffffffff 1b 800] [energy 89.887374 ei 0.106 es 0.000 et 0.001 er 0.005] ------- [27:255 -1:255 28 0] [0x2 3 1 [15 0] [1 4]] (REQUEST)
D 0.136491268 _2_ MAC  COL 0 AODV 106 [0 ffffffff 1b 800] [energy 89.888302 ei 0.106 es 0.000 et 0.000 er 0.005] ------- [27:255 -1:255 28 0] [0x2 3 1 [15 0] [1 4]] (REQUEST)