D 4.306686877 _17_ MAC  COL 0 AODV 106 [0 ffffffff b 800] [energy 85.697043 ei 4.301 es 0.000 et 0.001 er 0.001] ------- [11:255 -1:255 29 0] [0x2 2 1 [5 0] [4 4]] (REQUEST)
D 4.306687026 _10_ MAC  COL 0 AODV 106 [0 ffffffff b 800] [energy 85.697891 ei 4.301 es 0.000 et 0.000 er 0.001] ------- [11:255 -1:255 29 0] [0x2 2 1 [5 0] [4 4]] (REQUEST)
D 4.306687123 _4_ MAC  COL 0 AODV 106 [0 ffffffff b 800] [energy 85.696002 ei 4.301 es 0.000 et 0.002 er 0.001] ------- [11:255 -1:255 29 0] [0x2 2 1 [5 0] [4 4]] (REQUEST)
D 4.306687271 _5_ MAC  COL 0 AODV 106 [0 ffffffff b 800] [energy 85.696595 ei 4.301 es 0.000 et 0.002 er 0.001] ------- [11:255 -1:255 29 0] [0x2 2 1 [5 0] [4 4]] (REQUEST)
D 4.306687328 _43_ MAC  COL 0 AODV 106 [0 ffffffff b 800] [energy 85.697891 ei 4.301 es 0.000 et 0.000 er 0.001] ------- [11:255 -1:255 29 0] [0x2 2 1 [5 0] [4 4]] (REQUEST)
D 4.306687441 _20_ MAC  COL 0 AODV 106 [0 ffffffff b 800] [energy 85.697890 ei 4.301 es 0.000 et 0.000 er 0.001] ------- [11:255 -1:255 29 0] [0x2 2 1 [5 0] [4 4]] (REQUEST)
D 4.306687516 _35_ MAC  COL 0 AODV 106 [0 ffffffff b 800] [energy 85.697890 ei 4.301 es 0.000 et 0.000 er 0.001] ------- [11:255 -1:255 29 0] [0x2 2 1 [5 0] [4 4]] (REQUEST)
D 4.306687585 _21_ MAC  COL 0 AODV 106 [0 ffffffff b 800] [energy 85.697890 ei 4.301 es 0.000 et 0.000 er 0.001] ------- [11:255 -1:255 29 0] [0x2 2 1 [5 0] [4 4]] (REQUEST)
D 4.306687613 _26_ MAC  COL 0 AODV 106 [0 ffffffff b 800] [energy 85.697890 ei 4.301 es 0.000 et 0.000 er 0.001] ------- [11:255 -1:255 29 0] [0x2 2 1 [5 0] [4 4]] (REQUEST)
D 4.306687708 _25_ MAC  COL 0 AODV 106 [0 ffffffff b 800] [energy 85.697890 ei 4.301 es 0.000 et 0.000 er 0.001] ------- [11:255 -1:255 29 0] [0x2 2 1 [5 0] [4 4]] (REQUEST)
D 4.307534860 _37_ MAC  COL 0 AODV 106 [0 ffffffff 2a 800] [energy 85.697890 ei 4.301 es 0.000 et 0.000 er 0.001] ------- [42:255 -1:255 29 0] [0x2 2 1 [16 0] [9 4]] (REQUEST)
D 4.307534877 _17_ MAC  COL 0 AODV 106 [0 ffffffff 2a 800] [energy 85.697043 ei 4.301 es 0.000 et 0.001 er 0.001] ------- [42:255 -1:255 29 0] [0x2 2 1 [16 0] [9 4]] (REQUEST)
D 4.307535026 _10_ MAC  COL 0 AODV 106 [0 ffffffff 2a 800] [energy 85.697891 ei 4.301 es 0.000 et 0.000 er 0.001] ------- [42:255 -1:255 29 0] [0x2 2 1 [16 0] [9 4]] (REQUEST)
D 4.307535123 _4_ MAC  COL 0 AODV 106 [0 ffffffff 2a 800] [energy 85.696002 ei 4.301 es 0.000 et 0.002 er 0.001] ------- [42:255 -1:255 29 0] [0x2 2 1 [16 0] [9 4]] (REQUEST)
D 4.307535162 _9_ MAC  COL 0 AODV 106 [0 ffffffff 2a 800] [energy 85.697042 ei 4.301 es 0.000 et 0.001 er 0.001] ------- [42:255 -1:255 29 0] [0x2 2 1 [16 0] [9 4]] (REQUEST)
D 4.307535270 _39_ MAC  COL 0 AODV 106 [0 ffffffff 2a 800] [energy 85.697890 ei 4.301 es 0.000 et 0.000 er 0.001] ------- [42:255 -1:255 29 0] [0x2 2 1 [16 0] [9 4]] (REQUEST)
D 4.307535271 _5_ MAC  COL 0 AODV 106 [0 ffffffff 2a 800] [energy 85.696595 ei 4.301 es 0.000 et 0.002 er 0.001] ------- [42:255 -1:255 29 0] [0x2 2 1 [16 0] [9 4]] (REQUEST)
D 4.307535327 _27_ MAC  COL 0 AODV 106 [0 ffffffff 2a 800] [energy 85.697890 ei 4.301 es 0.000 et 0.000 er 0.001] ------- [42:255 -1:255 29 0] [0x2 2 1 [16 0] [9 4]] (REQUEST)
D 4.307535328 _43_ MAC  COL 0 AODV 106 [0 ffffffff 2a 800] [energy 85.697891 ei 4.301 es 0.000 et 0.000 er 0.001] ------- [42:255 -1:255 29 0] [0x2 2 1 [16 0] [9 4]] (REQUEST)
D 4.307535347 _22_ MAC  COL 0 AODV 106 [0 ffffffff 2a 800] [energy 85.697890 ei 4.301 es 0.000 et 0.000 er 0.001] ------- [42:255 -1:255 29 0] [0x2 2 1 [16 0] [9 4]] (REQUEST)
D 4.307535437 _29_ MAC  COL 0 AODV 106 [0 ffffffff 2a 800] [energy 85.697890 ei 4.301 es 0.000 et 0.000 er 0.001] ------- [42:255 -1:255 29 0] [0x2 2 1 [16 0] [9 4]] (REQUEST)
D 4.307535437 _45_ MAC  COL 0 AODV 106 [0 ffffffff 2a 800] [energy 85.697890 ei 4.301 es 0.000 et 0.000 er 0.001] ------- [42:255 -1:255 29 0] [0x2 2 1 [16 0] [9 4]] (REQUEST)
D 4.307535437 _44_ MAC  COL 0 AODV 106 [0 ffffffff 2a 800] [energy 85.697890 ei 4.301 es 0.000 et 0.000 er 0.001] ------- [42:255 -1:255 29 0] [0x2 2 1 [16 0] [9 4]] (REQUEST)
D 4.307535441 _20_ MAC  COL 0 AODV 106 [0 ffffffff 2a 800] [energy 85.697890 ei 4.301 es 0.000 et 0.000 er 0.001] ------- [42:255 -1:255 29 0] [0x2 2 1 [16 0] [9 4]] (REQUEST)
D 4.307535444 _24_ MAC  COL 0 AODV 106 [0 ffffffff 2a 800] [energy 85.697890 ei 4.301 es 0.000 et 0.000 er 0.001] ------- [42:255 -1:255 29 0] [0x2 2 1 [16 0] [9 4]] (REQUEST)
D 4.307535444 _30_ MAC  COL 0 AODV 106 [0 ffffffff 2a 800] [energy 85.697890 ei 4.301 es 0.000 et 0.000 er 0.001] ------- [42:255 -1:255 29 0] [0x2 2 1 [16 0] [9 4]] (REQUEST)
D 4.307535500 _19_ MAC  COL 0 AODV 106 [0 ffffffff 2a 800] [energy 85.697890 ei 4.301 es 0.000 et 0.000 er 0.001] ------- [42:255 -1:255 29 0] [0x2 2 1 [16 0] [9 4]] (REQUEST)
D 4.307535516 _35_ MAC  COL 0 AODV 106 [0 ffffffff 2a 800] [energy 85.697890 ei 4.301 es 0.000 et 0.000 er 0.001] ------- [42:255 -1:255 29 0] [0x2 2 1 [16 0] [9 4]] (REQUEST)
D 4.308350577 _11_ MAC  COL 0 AODV 106 [0 ffffffff 17 800] [energy 85.696409 ei 4.301 es 0.000 et 0.001 er 0.001] ------- [23:255 -1:255 28 0] [0x2 3 1 [5 0] [4 4]] (REQUEST)
D 4.308350610 _2_ MAC  COL 0 AODV 106 [0 ffffffff 17 800] [energy 85.696409 ei 4.301 es 0.000 et 0.001 er 0.001] ------- [23:255 -1:255 28 0] [0x2 3 1 [5 0] [4 4]] (REQUEST)
D 4.308350632 _1_ MAC  COL 0 AODV 106 [0 ffffffff 17 800] [energy 85.697257 ei 4.301 es 0.000 et 0.000 er 0.001] ------- [23:255 -1:255 28 0] [0x2 3 1 [5 0] [4 4]] (REQUEST)
D 4.309197645 _27_ MAC  COL 0 AODV 106 [0 ffffffff 18 800] [energy 85.697256 ei 4.301 es 0.000 et 0.000 er 0.001] ------- [24:255 -1:255 28 0] [0x2 3 1 [5 0] [4 4]] (REQUEST)
D 4.309197934 _35_ MAC  COL 0 AODV 106 [0 ffffffff 18 800] [energy 85.697256 ei 4.301 es 0.000 et 0.000 er 0.001] ------- [24:255 -1:255 28 0] [0x2 3 1 [5 0] [4 4]] (REQUEST)
D 4.309198027 _37_ MAC  COL 0 AODV 106 [0 ffffffff 18 800] [energy 85.697255 ei 4.301 es 0.000 et 0.000 er 0.001] ------- [24:255 -1:255 28 0] [0x2 3 1 [5 0] [4 4]] (REQUEST)
D 4.309198033 _43_ MAC  COL 0 AODV 106 [0 ffffffff 18 800] [energy 85.697256 ei 4.301 es 0.000 et 0.000 er 0.001] ------- [24:255 -1:255 28 0] [0x2 3 1 [5 0] [4 4]] (REQUEST)
D 4.309198128 _25_ MAC  COL 0 AODV 106 [0 ffffffff 18 800] [energy 85.697256 ei 4.301 es 0.000 et 0.000 er 0.001] ------- [24:255 -1:255 28 0] [0x2 3 1 [5 0] [4 4]] (REQUEST)
D 4.309198147 _33_ MAC  COL 0 AODV 106 [0 ffffffff 18 800] [energy 85.697256 ei 4.301 es 0.000 et 0.000 er 0.001] ------- [24:255 -1:255 28 0] [0x2 3 1 [5 0] [4 4]] (REQUEST)
D 4.309198184 _26_ MAC  COL 0 AODV 106 [0 ffffffff 18 800] [energy 85.697256 ei 4.301 es 0.000 et 0.000 er 0.001] ------- [24:255 -1:255 28 0] [0x2 3 1 [5 0] [4 4]] (REQUEST)
D 4.309198197 _42_ MAC  COL 0 AODV 106 [0 ffffffff 18 800] [energy 85.696407 ei 4.301 es 0.000 et 0.001 er 0.001] ------- [24:255 -1:255 28 0] [0x2 3 1 [5 0] [4 4]] (REQUEST)
D 4.309198209 _17_ MAC  COL 0 AODV 106 [0 ffffffff 18 800] [energy 85.696408 ei 4.301 es 0.000 et 0.001 er 0.001] ------- [24:255 -1:255 28 0] [0x2 3 1 [5 0] [4 4]] (REQUEST)
D 4.309198276 _31_ MAC  COL 0 AODV 106 [0 ffffffff 18 800] [energy 85.697256 ei 4.301 es 0.000 et 0.000 er 0.001] ------- [24:255 -1:255 28 0] [0x2 3 1 [5 0] [4 4]] (REQUEST)
D 4.310144170 _14_ MAC  COL 0 AODV 106 [0 ffffffff 2c 800] [energy 85.696600 ei 4.302 es 0.000 et 0.000 er 0.002] ------- [44:255 -1:255 29 0] [0x2 2 1 [5 0] [4 4]] (REQUEST)
D 4.310144347 _17_ MAC  COL 0 AODV 106 [0 ffffffff 2c 800] [energy 85.695751 ei 4.302 es 0.000 et 0.001 er 0.001] ------- [44:255 -1:255 29 0] [0x2 2 1 [5 0] [4 4]] (REQUEST)
D 4.310592099 _11_ MAC  COL 0 AODV 106 [0 ffffffff 1c 800] [energy 85.695674 ei 4.302 es 0.000 et 0.001 er 0.002] ------- [28:255 -1:255 28 0] [0x2 3 1 [5 0] [4 4]] (REQUEST)
D 4.310592122 _16_ MAC  COL 0 AODV 106 [0 ffffffff 1c 800] [energy 85.696522 ei 4.302 es 0.000 et 0.000 er 0.002] ------- [28:255 -1:255 28 0] [0x2 3 1 [5 0] [4 4]] (REQUEST)
D 4.310991522 _38_ MAC  COL 0 AODV 106 [0 ffffffff 1c 800] [energy 85.696522 ei 4.302 es 0.000 et 0.000 er 0.002] ------- [28:255 -1:255 28 0] [0x2 3 1 [5 0] [4 4]] (REQUEST)
D 4.310991578 _36_ MAC  COL 0 AODV 106 [0 ffffffff 1c 800] [energy 85.696521 ei 4.302 es 0.000 et 0.000 er 0.002] ------- [28:255 -1:255 28 0] [0x2 3 1 [5 0] [4 4]] (REQUEST)
D 4.310991627 _18_ MAC  COL 0 AODV 106 [0 ffffffff 1c 800] [energy 85.696522 ei 4.302 es 0.000 et 0.000 er 0.002] ------- [28:255 -1:255 28 0] [0x2 3 1 [5 0] [4 4]] (REQUEST)
D 4.310991627 _15_ MAC  COL 0 AODV 106 [0 ffffffff 1c 800] [energy 85.696521 ei 4.302 es 0.000 et 0.000 er 0.002] ------- [28:255 -1:255 28 0] [0x2 3 1 [5 0] [4 4]] (REQUEST)
D 4.310991639 _41_ MAC  COL 0 AODV 106 [0 ffffffff 1c 800] [energy 85.696521 ei 4.302 es 0.000 et 0.000 er 0.002] ------- [28:255 -1:255 28 0] [0x2 3 1 [5 0] [4 4]] (REQUEST)
D 4.310991664 _26_ MAC  COL 0 AODV 106 [0 ffffffff 1c 800] [energy 85.696520 ei 4.302 es 0.000 et 0.000 er 0.002] ------- [28:255 -1:255 28 0] [0x2 3 1 [5 0] [4 4]] (REQUEST)
D 4.310991681 _3_ MAC  COL 0 AODV 106 [0 ffffffff 1c 800] [energy 85.696521 ei 4.302 es 0.000 et 0.000 er 0.002] ------- [28:255 -1:255 28 0] [0x2 3 1 [5 0] [4 4]] (REQUEST)
D 4.310991685 _1_ MAC  COL 0 AODV 106 [0 ffffffff 1c 800] [energy 85.696522 ei 4.302 es 0.000 et 0.000 er 0.002] ------- [28:255 -1:255 28 0] [0x2 3 1 [5 0] [4 4]] (REQUEST)
D 4.310991711 _25_ MAC  COL 0 AODV 106 [0 ffffffff 1c 800] [energy 85.696520 ei 4.302 es 0.000 et 0.000 er 0.002] ------- [28:255 -1:255 28 0] [0x2 3 1 [5 0] [4 4]] (REQUEST)
D 4.310991762 _33_ MAC  COL 0 AODV 106 [0 ffffffff 1c 800] [energy 85.696520 ei 4.302 es 0.000 et 0.000 er 0.002] ------- [28:255 -1:255 28 0] [0x2 3 1 [5 0] [4 4]] (REQUEST)
D 4.311439728 _17_ MAC  COL 0 AODV 106 [0 ffffffff 1d 800] [energy 85.695673 ei 4.302 es 0.000 et 0.001 er 0.002] ------- [29:255 -1:255 29 0] [0x2 2 1 [5 0] [4 4]] (REQUEST)
D 4.311439749 _14_ MAC  COL 0 AODV 106 [0 ffffffff 1d 800] [energy 85.696522 ei 4.302 es 0.000 et 0.000 er 0.002] ------- [29:255 -1:255 29 0] [0x2 2 1 [5 0] [4 4]] (REQUEST)
D 4.315244518 _4_ MAC  COL 0 AODV 106 [0 ffffffff 13 800] [energy 85.692936 ei 4.302 es 0.000 et 0.003 er 0.002] ------- [19:255 -1:255 29 0] [0x2 2 1 [5 0] [4 4]] (REQUEST)
D 4.315244559 _9_ MAC  COL 0 AODV 106 [0 ffffffff 13 800] [energy 85.694584 ei 4.302 es 0.000 et 0.001 er 0.002] ------- [19:255 -1:255 29 0] [0x2 2 1 [5 0] [4 4]] (REQUEST)
D 4.315244665 _5_ MAC  COL 0 AODV 106 [0 ffffffff 13 800] [energy 85.692969 ei 4.302 es 0.000 et 0.003 er 0.002] ------- [19:255 -1:255 29 0] [0x2 2 1 [5 0] [4 4]] (REQUEST)
D 4.315244665 _39_ MAC  COL 0 AODV 106 [0 ffffffff 13 800] [energy 85.695432 ei 4.302 es 0.000 et 0.000 er 0.002] ------- [19:255 -1:255 29 0] [0x2 2 1 [5 0] [4 4]] (REQUEST)
D 4.315244729 _14_ MAC  COL 0 AODV 106 [0 ffffffff 13 800] [energy 85.695433 ei 4.302 es 0.000 et 0.000 er 0.002] ------- [19:255 -1:255 29 0] [0x2 2 1 [5 0] [4 4]] (REQUEST)
D 4.315244890 _6_ MAC  COL 0 AODV 106 [0 ffffffff 2a 800] [energy 85.695433 ei 4.302 es 0.000 et 0.000 er 0.002] ------- [42:255 -1:255 29 0] [0x2 2 1 [5 0] [4 4]] (REQUEST)
D 4.315244901 _0_ MAC  COL 0 AODV 106 [0 ffffffff 2a 800] [energy 85.695433 ei 4.302 es 0.000 et 0.000 er 0.002] ------- [42:255 -1:255 29 0] [0x2 2 1 [5 0] [4 4]] (REQUEST)
D 4.315244906 _2_ MAC  COL 0 AODV 106 [0 ffffffff 13 800] [energy 85.694585 ei 4.302 es 0.000 et 0.001 er 0.002] ------- [19:255 -1:255 29 0] [0x2 2 1 [5 0] [4 4]] (REQUEST)
D 4.315244972 _16_ MAC  COL 0 AODV 106 [0 ffffffff 2a 800] [energy 85.694585 ei 4.302 es 0.000 et 0.001 er 0.002] ------- [42:255 -1:255 29 0] [0x2 2 1 [5 0] [4 4]] (REQUEST)
D 4.315245165 _12_ MAC  COL 0 AODV 106 [0 ffffffff 13 800] [energy 85.695434 ei 4.302 es 0.000 et 0.000 er 0.002] ------- [19:255 -1:255 29 0] [0x2 2 1 [5 0] [4 4]] (REQUEST)
D 4.315245438 _35_ MAC  COL 0 AODV 106 [0 ffffffff 2a 800] [energy 85.695431 ei 4.302 es 0.000 et 0.000 er 0.002] ------- [42:255 -1:255 29 0] [0x2 2 1 [5 0] [4 4]] (REQUEST)
D 4.316092518 _4_ MAC  COL 0 AODV 106 [0 ffffffff 2a 800] [energy 85.692936 ei 4.302 es 0.000 et 0.003 er 0.002] ------- [42:255 -1:255 29 0] [0x2 2 1 [5 0] [4 4]] (REQUEST)
D 4.316092559 _9_ MAC  COL 0 AODV 106 [0 ffffffff 2a 800] [energy 85.694584 ei 4.302 es 0.000 et 0.001 er 0.002] ------- [42:255 -1:255 29 0] [0x2 2 1 [5 0] [4 4]] (REQUEST)
D 4.316092665 _5_ MAC  COL 0 AODV 106 [0 ffffffff 2a 800] [energy 85.692969 ei 4.302 es 0.000 et 0.003 er 0.002] ------- [42:255 -1:255 29 0] [0x2 2 1 [5 0] [4 4]] (REQUEST)
D 4.316092665 _39_ MAC  COL 0 AODV 106 [0 ffffffff 2a 800] [energy 85.695432 ei 4.302 es 0.000 et 0.000 er 0.002] ------- [42:255 -1:255 29 0] [0x2 2 1 [5 0] [4 4]] (REQUEST)
D 4.316092729 _14_ MAC  COL 0 AODV 106 [0 ffffffff 2a 800] [energy 85.695433 ei 4.302 es 0.000 et 0.000 er 0.002] ------- [42:255 -1:255 29 0] [0x2 2 1 [5 0] [4 4]] (REQUEST)
D 4.316092906 _2_ MAC  COL 0 AODV 106 [0 ffffffff 2a 800] [energy 85.694585 ei 4.302 es 0.000 et 0.001 er 0.002] ------- [42:255 -1:255 29 0] [0x2 2 1 [5 0] [4 4]] (REQUEST)
D 4.319283838 _5_ MAC  COL 0 AODV 106 [0 ffffffff 6 800] [energy 85.691728 ei 4.303 es 0.000 et 0.003 er 0.003] ------- [6:255 -1:255 29 0] [0x2 2 1 [5 0] [4 4]] (REQUEST)
D 4.319283893 _20_ MAC  COL 0 AODV 106 [0 ffffffff 6 800] [energy 85.694193 ei 4.303 es 0.000 et 0.000 er 0.003] ------- [6:255 -1:255 29 0] [0x2 2 1 [5 0] [4 4]] (REQUEST)
D 4.319283912 _10_ MAC  COL 0 AODV 106 [0 ffffffff 6 800] [energy 85.693344 ei 4.303 es 0.000 et 0.001 er 0.003] ------- [6:255 -1:255 29 0] [0x2 2 1 [5 0] [4 4]] (REQUEST)
D 4.319283946 _40_ MAC  COL 0 AODV 106 [0 ffffffff 27 800] [energy 85.694191 ei 4.303 es 0.000 et 0.000 er 0.003] ------- [39:255 -1:255 29 0] [0x2 2 1 [5 0] [4 4]] (REQUEST)
D 4.319283954 _42_ MAC  COL 0 AODV 106 [0 ffffffff 27 800] [energy 85.692495 ei 4.303 es 0.000 et 0.002 er 0.003] ------- [39:255 -1:255 29 0] [0x2 2 1 [5 0] [4 4]] (REQUEST)
D 4.319283971 _17_ MAC  COL 0 AODV 106 [0 ffffffff 6 800] [energy 85.693343 ei 4.303 es 0.000 et 0.001 er 0.003] ------- [6:255 -1:255 29 0] [0x2 2 1 [5 0] [4 4]] (REQUEST)
D 4.319284036 _21_ MAC  COL 0 AODV 106 [0 ffffffff 6 800] [energy 85.693345 ei 4.303 es 0.000 et 0.001 er 0.003] ------- [6:255 -1:255 29 0] [0x2 2 1 [5 0] [4 4]] (REQUEST)
D 4.319284097 _37_ MAC  COL 0 AODV 106 [0 ffffffff 6 800] [energy 85.694191 ei 4.303 es 0.000 et 0.000 er 0.003] ------- [6:255 -1:255 29 0] [0x2 2 1 [5 0] [4 4]] (REQUEST)
D 4.319284310 _7_ MAC  COL 0 AODV 106 [0 ffffffff 6 800] [energy 85.694193 ei 4.303 es 0.000 et 0.000 er 0.003] ------- [6:255 -1:255 29 0] [0x2 2 1 [5 0] [4 4]] (REQUEST)
D 4.319284556 _27_ MAC  COL 0 AODV 106 [0 ffffffff 6 800] [energy 85.693342 ei 4.303 es 0.000 et 0.001 er 0.003] ------- [6:255 -1:255 29 0] [0x2 2 1 [5 0] [4 4]] (REQUEST)
D 4.319284650 _8_ MAC  COL 0 AODV 106 [0 ffffffff 6 800] [energy 85.694194 ei 4.303 es 0.000 et 0.000 er 0.003] ------- [6:255 -1:255 29 0] [0x2 2 1 [5 0] [4 4]] (REQUEST)
D 4.320131838 _5_ MAC  COL 0 AODV 106 [0 ffffffff 27 800] [energy 85.691728 ei 4.303 es 0.000 et 0.003 er 0.003] ------- [39:255 -1:255 29 0] [0x2 2 1 [5 0] [4 4]] (REQUEST)
D 4.320131893 _20_ MAC  COL 0 AODV 106 [0 ffffffff 27 800] [energy 85.694193 ei 4.303 es 0.000 et 0.000 er 0.003] ------- [39:255 -1:255 29 0] [0x2 2 1 [5 0] [4 4]] (REQUEST)
D 4.320131912 _10_ MAC  COL 0 AODV 106 [0 ffffffff 27 800] [energy 85.693344 ei 4.303 es 0.000 et 0.001 er 0.003] ------- [39:255 -1:255 29 0] [0x2 2 1 [5 0] [4 4]] (REQUEST)
D 4.320131946 _40_ MAC  COL 0 AODV 106 [0 ffffffff 6 800] [energy 85.694191 ei 4.303 es 0.000 et 0.000 er 0.003] ------- [6:255 -1:255 29 0] [0x2 2 1 [5 0] [4 4]] (REQUEST)
D 4.320131954 _42_ MAC  COL 0 AODV 106 [0 ffffffff 6 800] [energy 85.692495 ei 4.303 es 0.000 et 0.002 er 0.003] ------- [6:255 -1:255 29 0] [0x2 2 1 [5 0] [4 4]] (REQUEST)
D 4.320131971 _17_ MAC  COL 0 AODV 106 [0 ffffffff 27 800] [energy 85.693343 ei 4.303 es 0.000 et 0.001 er 0.003] ------- [39:255 -1:255 29 0] [0x2 2 1 [5 0] [4 4]] (REQUEST)
D 4.320132036 _21_ MAC  COL 0 AODV 106 [0 ffffffff 27 800] [energy 85.693345 ei 4.303 es 0.000 et 0.001 er 0.003] ------- [39:255 -1:255 29 0] [0x2 2 1 [5 0] [4 4]] (REQUEST)
D 4.320132097 _37_ MAC  COL 0 AODV 106 [0 ffffffff 27 800] [energy 85.694191 ei 4.303 es 0.000 et 0.000 er 0.003] ------- [39:255 -1:255 29 0] [0x2 2 1 [5 0] [4 4]] (REQUEST)
D 4.321485565 _13_ MAC  COL 0 AODV 106 [0 ffffffff 12 800] [energy 85.692544 ei 4.303 es 0.000 et 0.001 er 0.003] ------- [18:255 -1:255 28 0] [0x2 3 1 [5 0] [4 4]] (REQUEST)
D 4.321485591 _8_ MAC  COL 0 AODV 106 [0 ffffffff 7 800] [energy 85.693392 ei 4.303 es 0.000 et 0.000 er 0.003] ------- [7:255 -1:255 29 0] [0x2 2 1 [5 0] [4 4]] (REQUEST)
D 4.321485639 _2_ MAC  COL 0 AODV 106 [0 ffffffff 12 800] [energy 85.692543 ei 4.303 es 0.000 et 0.001 er 0.003] ------- [18:255 -1:255 28 0] [0x2 3 1 [5 0] [4 4]] (REQUEST)
D 4.321485662 _23_ MAC  COL 0 AODV 106 [0 ffffffff 12 800] [energy 85.692213 ei 4.304 es 0.000 et 0.001 er 0.003] ------- [18:255 -1:255 28 0] [0x2 3 1 [5 0] [4 4]] (REQUEST)
D 4.321485721 _11_ MAC  COL 0 AODV 106 [0 ffffffff 12 800] [energy 85.692543 ei 4.303 es 0.000 et 0.001 er 0.003] ------- [18:255 -1:255 28 0] [0x2 3 1 [5 0] [4 4]] (REQUEST)
D 4.321485755 _14_ MAC  COL 0 AODV 106 [0 ffffffff 7 800] [energy 85.693390 ei 4.303 es 0.000 et 0.000 er 0.003] ------- [7:255 -1:255 29 0] [0x2 2 1 [5 0] [4 4]] (REQUEST)
D 4.321485782 _6_ MAC  COL 0 AODV 106 [0 ffffffff 12 800] [energy 85.692543 ei 4.303 es 0.000 et 0.001 er 0.003] ------- [18:255 -1:255 28 0] [0x2 3 1 [5 0] [4 4]] (REQUEST)
D 4.321485802 _16_ MAC  COL 0 AODV 106 [0 ffffffff 12 800] [energy 85.692543 ei 4.303 es 0.000 et 0.001 er 0.003] ------- [18:255 -1:255 28 0] [0x2 3 1 [5 0] [4 4]] (REQUEST)
D 4.321485852 _0_ MAC  COL 0 AODV 106 [0 ffffffff 12 800] [energy 85.693390 ei 4.303 es 0.000 et 0.000 er 0.003] ------- [18:255 -1:255 28 0] [0x2 3 1 [5 0] [4 4]] (REQUEST)
D 4.321485966 _3_ MAC  COL 0 AODV 106 [0 ffffffff 12 800] [energy 85.692543 ei 4.303 es 0.000 et 0.001 er 0.003] ------- [18:255 -1:255 28 0] [0x2 3 1 [5 0] [4 4]] (REQUEST)
D 4.321485969 _5_ MAC  COL 0 AODV 106 [0 ffffffff 7 800] [energy 85.690925 ei 4.303 es 0.000 et 0.003 er 0.003] ------- [7:255 -1:255 29 0] [0x2 2 1 [5 0] [4 4]] (REQUEST)
D 4.321485994 _15_ MAC  COL 0 AODV 106 [0 ffffffff 12 800] [energy 85.693391 ei 4.303 es 0.000 et 0.000 er 0.003] ------- [18:255 -1:255 28 0] [0x2 3 1 [5 0] [4 4]] (REQUEST)
D 4.321486005 _10_ MAC  COL 0 AODV 106 [0 ffffffff 7 800] [energy 85.692541 ei 4.303 es 0.000 et 0.001 er 0.003] ------- [7:255 -1:255 29 0] [0x2 2 1 [5 0] [4 4]] (REQUEST)
D 4.321486045 _41_ MAC  COL 0 AODV 106 [0 ffffffff 12 800] [energy 85.693390 ei 4.303 es 0.000 et 0.000 er 0.003] ------- [18:255 -1:255 28 0] [0x2 3 1 [5 0] [4 4]] (REQUEST)
D 4.321486184 _4_ MAC  COL 0 AODV 106 [0 ffffffff 7 800] [energy 85.690893 ei 4.303 es 0.000 et 0.003 er 0.003] ------- [7:255 -1:255 29 0] [0x2 2 1 [5 0] [4 4]] (REQUEST)
D 4.321486214 _36_ MAC  COL 0 AODV 106 [0 ffffffff 12 800] [energy 85.693390 ei 4.303 es 0.000 et 0.000 er 0.003] ------- [18:255 -1:255 28 0] [0x2 3 1 [5 0] [4 4]] (REQUEST)
D 4.321486255 _9_ MAC  COL 0 AODV 106 [0 ffffffff 7 800] [energy 85.692541 ei 4.303 es 0.000 et 0.001 er 0.003] ------- [7:255 -1:255 29 0] [0x2 2 1 [5 0] [4 4]] (REQUEST)
D 4.321486300 _26_ MAC  COL 0 AODV 106 [0 ffffffff 12 800] [energy 85.693390 ei 4.303 es 0.000 et 0.000 er 0.003] ------- [18:255 -1:255 28 0] [0x2 3 1 [5 0] [4 4]] (REQUEST)
D 4.321486314 _22_ MAC  COL 0 AODV 106 [0 ffffffff 7 800] [energy 85.693390 ei 4.303 es 0.000 et 0.000 er 0.003] ------- [7:255 -1:255 29 0] [0x2 2 1 [5 0] [4 4]] (REQUEST)
D 4.322333565 _13_ MAC  COL 0 AODV 106 [0 ffffffff 7 800] [energy 85.692544 ei 4.303 es 0.000 et 0.001 er 0.003] ------- [7:255 -1:255 29 0] [0x2 2 1 [5 0] [4 4]] (REQUEST)
D 4.322333591 _8_ MAC  COL 0 AODV 106 [0 ffffffff 12 800] [energy 85.693392 ei 4.303 es 0.000 et 0.000 er 0.003] ------- [18:255 -1:255 28 0] [0x2 3 1 [5 0] [4 4]] (REQUEST)
D 4.322333639 _2_ MAC  COL 0 AODV 106 [0 ffffffff 7 800] [energy 85.692543 ei 4.303 es 0.000 et 0.001 er 0.003] ------- [7:255 -1:255 29 0] [0x2 2 1 [5 0] [4 4]] (REQUEST)
D 4.322333662 _23_ MAC  COL 0 AODV 106 [0 ffffffff 7 800] [energy 85.692213 ei 4.304 es 0.000 et 0.001 er 0.003] ------- [7:255 -1:255 29 0] [0x2 2 1 [5 0] [4 4]] (REQUEST)
D 4.322333721 _11_ MAC  COL 0 AODV 106 [0 ffffffff 7 800] [energy 85.692543 ei 4.303 es 0.000 et 0.001 er 0.003] ------- [7:255 -1:255 29 0] [0x2 2 1 [5 0] [4 4]] (REQUEST)
D 4.322333755 _14_ MAC  COL 0 AODV 106 [0 ffffffff 12 800] [energy 85.693390 ei 4.303 es 0.000 et 0.000 er 0.003] ------- [18:255 -1:255 28 0] [0x2 3 1 [5 0] [4 4]] (REQUEST)
D 4.322333782 _6_ MAC  COL 0 AODV 106 [0 ffffffff 7 800] [energy 85.692543 ei 4.303 es 0.000 et 0.001 er 0.003] ------- [7:255 -1:255 29 0] [0x2 2 1 [5 0] [4 4]] (REQUEST)
D 4.322333802 _16_ MAC  COL 0 AODV 106 [0 ffffffff 7 800] [energy 85.692543 ei 4.303 es 0.000 et 0.001 er 0.003] ------- [7:255 -1:255 29 0] [0x2 2 1 [5 0] [4 4]] (REQUEST)
D 4.322333852 _0_ MAC  COL 0 AODV 106 [0 ffffffff 7 800] [energy 85.693390 ei 4.303 es 0.000 et 0.000 er 0.003] ------- [7:255 -1:255 29 0] [0x2 2 1 [5 0] [4 4]] (REQUEST)
D 4.326442163 _36_ MAC  COL 0 AODV 106 [0 ffffffff f 800] [energy 85.691932 ei 4.304 es 0.000 et 0.000 er 0.004] ------- [15:255 -1:255 28 0] [0x2 3 1 [5 0] [4 4]] (REQUEST)
D 4.326442324 _43_ MAC  COL 0 AODV 106 [0 ffffffff f 800] [energy 85.691931 ei 4.304 es 0.000 et 0.000 er 0.004] ------- [15:255 -1:255 28 0] [0x2 3 1 [5 0] [4 4]] (REQUEST)
D 4.326442385 _33_ MAC  COL 0 AODV 106 [0 ffffffff 19 800] [energy 85.691931 ei 4.304 es 0.000 et 0.000 er 0.004] ------- [25:255 -1:255 28 0] [0x2 3 1 [5 0] [4 4]] (REQUEST)
D 4.326442425 _31_ MAC  COL 0 AODV 106 [0 ffffffff 1a 800] [energy 85.691125 ei 4.305 es 0.000 et 0.000 er 0.004] ------- [26:255 -1:255 28 0] [0x2 3 1 [5 0] [4 4]] (REQUEST)
D 4.326442437 _35_ MAC  COL 0 AODV 106 [0 ffffffff 1a 800] [energy 85.691931 ei 4.304 es 0.000 et 0.000 er 0.004] ------- [26:255 -1:255 28 0] [0x2 3 1 [5 0] [4 4]] (REQUEST)
D 4.326442485 _14_ MAC  COL 0 AODV 106 [0 ffffffff f 800] [energy 85.691931 ei 4.304 es 0.000 et 0.000 er 0.004] ------- [15:255 -1:255 28 0] [0x2 3 1 [5 0] [4 4]] (REQUEST)
D 4.326442498 _36_ MAC  COL 0 AODV 106 [0 ffffffff 1a 800] [energy 85.691932 ei 4.304 es 0.000 et 0.000 er 0.004] ------- [26:255 -1:255 28 0] [0x2 3 1 [5 0] [4 4]] (REQUEST)
D 4.326442534 _0_ MAC  COL 0 AODV 106 [0 ffffffff f 800] [energy 85.691084 ei 4.304 es 0.000 et 0.001 er 0.004] ------- [15:255 -1:255 28 0] [0x2 3 1 [5 0] [4 4]] (REQUEST)
D 4.326442610 _43_ MAC  COL 0 AODV 106 [0 ffffffff 1a 800] [energy 85.691931 ei 4.304 es 0.000 et 0.000 er 0.004] ------- [26:255 -1:255 28 0] [0x2 3 1 [5 0] [4 4]] (REQUEST)
D 4.326442617 _27_ MAC  COL 0 AODV 106 [0 ffffffff 1a 800] [energy 85.691082 ei 4.304 es 0.000 et 0.001 er 0.004] ------- [26:255 -1:255 28 0] [0x2 3 1 [5 0] [4 4]] (REQUEST)
D 4.326442644 _10_ MAC  COL 0 AODV 106 [0 ffffffff f 800] [energy 85.691082 ei 4.304 es 0.000 et 0.001 er 0.004] ------- [15:255 -1:255 28 0] [0x2 3 1 [5 0] [4 4]] (REQUEST)
D 4.326442656 _28_ MAC  COL 0 AODV 106 [0 ffffffff f 800] [energy 85.690278 ei 4.305 es 0.000 et 0.001 er 0.004] ------- [15:255 -1:255 28 0] [0x2 3 1 [5 0] [4 4]] (REQUEST)
D 4.326442675 _12_ MAC  COL 0 AODV 106 [0 ffffffff f 800] [energy 85.691933 ei 4.304 es 0.000 et 0.000 er 0.004] ------- [15:255 -1:255 28 0] [0x2 3 1 [5 0] [4 4]] (REQUEST)
D 4.326442713 _2_ MAC  COL 0 AODV 106 [0 ffffffff f 800] [energy 85.691084 ei 4.304 es 0.000 et 0.001 er 0.004] ------- [15:255 -1:255 28 0] [0x2 3 1 [5 0] [4 4]] (REQUEST)
D 4.326442734 _34_ MAC  COL 0 AODV 106 [0 ffffffff 1a 800] [energy 85.691602 ei 4.304 es 0.000 et 0.000 er 0.004] ------- [26:255 -1:255 28 0] [0x2 3 1 [5 0] [4 4]] (REQUEST)
D 4.326442769 _27_ MAC  COL 0 AODV 106 [0 ffffffff f 800] [energy 85.691082 ei 4.304 es 0.000 et 0.001 er 0.004] ------- [15:255 -1:255 28 0] [0x2 3 1 [5 0] [4 4]] (REQUEST)
D 4.326442800 _30_ MAC  COL 0 AODV 106 [0 ffffffff 1a 800] [energy 85.691602 ei 4.304 es 0.000 et 0.000 er 0.004] ------- [26:255 -1:255 28 0] [0x2 3 1 [5 0] [4 4]] (REQUEST)
D 4.326442807 _0_ MAC  COL 0 AODV 106 [0 ffffffff 1a 800] [energy 85.691084 ei 4.304 es 0.000 et 0.001 er 0.004] ------- [26:255 -1:255 28 0] [0x2 3 1 [5 0] [4 4]] (REQUEST)
D 4.326442814 _24_ MAC  COL 0 AODV 106 [0 ffffffff 1a 800] [energy 85.690754 ei 4.304 es 0.000 et 0.001 er 0.004] ------- [26:255 -1:255 28 0] [0x2 3 1 [5 0] [4 4]] (REQUEST)
D 4.326442815 _17_ MAC  COL 0 AODV 106 [0 ffffffff f 800] [energy 85.691082 ei 4.304 es 0.000 et 0.001 er 0.004] ------- [15:255 -1:255 28 0] [0x2 3 1 [5 0] [4 4]] (REQUEST)
D 4.326442816 _17_ MAC  COL 0 AODV 106 [0 ffffffff 1a 800] [energy 85.691082 ei 4.304 es 0.000 et 0.001 er 0.004] ------- [26:255 -1:255 28 0] [0x2 3 1 [5 0] [4 4]] (REQUEST)
D 4.326442818 _18_ MAC  COL 0 AODV 106 [0 ffffffff f 800] [energy 85.691085 ei 4.304 es 0.000 et 0.001 er 0.004] ------- [15:255 -1:255 28 0] [0x2 3 1 [5 0] [4 4]] (REQUEST)
D 4.326442845 _10_ MAC  COL 0 AODV 106 [0 ffffffff 14 800] [energy 85.691082 ei 4.304 es 0.000 et 0.001 er 0.004] ------- [20:255 -1:255 29 0] [0x2 2 1 [16 0] [9 4]] (REQUEST)
D 4.326442874 _28_ MAC  COL 0 AODV 106 [0 ffffffff 1a 800] [energy 85.690278 ei 4.305 es 0.000 et 0.001 er 0.004] ------- [26:255 -1:255 28 0] [0x2 3 1 [5 0] [4 4]] (REQUEST)
D 4.326442884 _0_ MAC  COL 0 AODV 106 [0 ffffffff 14 800] [energy 85.691084 ei 4.304 es 0.000 et 0.001 er 0.004] ------- [20:255 -1:255 29 0] [0x2 2 1 [16 0] [9 4]] (REQUEST)
D 4.326442902 _32_ MAC  COL 0 AODV 106 [0 ffffffff 1a 800] [energy 85.691602 ei 4.304 es 0.000 et 0.000 er 0.004] ------- [26:255 -1:255 28 0] [0x2 3 1 [5 0] [4 4]] (REQUEST)
D 4.326442907 _38_ MAC  COL 0 AODV 106 [0 ffffffff f 800] [energy 85.691933 ei 4.304 es 0.000 et 0.000 er 0.004] ------- [15:255 -1:255 28 0] [0x2 3 1 [5 0] [4 4]] (REQUEST)
D 4.326442961 _42_ MAC  COL 0 AODV 106 [0 ffffffff 14 800] [energy 85.690234 ei 4.304 es 0.000 et 0.002 er 0.004] ------- [20:255 -1:255 29 0] [0x2 2 1 [16 0] [9 4]] (REQUEST)
D 4.326442970 _13_ MAC  COL 0 AODV 106 [0 ffffffff f 800] [energy 85.691085 ei 4.304 es 0.000 et 0.001 er 0.004] ------- [15:255 -1:255 28 0] [0x2 3 1 [5 0] [4 4]] (REQUEST)
D 4.326443000 _40_ MAC  COL 0 AODV 106 [0 ffffffff 14 800] [energy 85.691929 ei 4.304 es 0.000 et 0.000 er 0.004] ------- [20:255 -1:255 29 0] [0x2 2 1 [16 0] [9 4]] (REQUEST)
D 4.326443055 _37_ MAC  COL 0 AODV 106 [0 ffffffff 1a 800] [energy 85.691929 ei 4.304 es 0.000 et 0.000 er 0.004] ------- [26:255 -1:255 28 0] [0x2 3 1 [5 0] [4 4]] (REQUEST)
D 4.326443060 _2_ MAC  COL 0 AODV 106 [0 ffffffff 14 800] [energy 85.691084 ei 4.304 es 0.000 et 0.001 er 0.004] ------- [20:255 -1:255 29 0] [0x2 2 1 [16 0] [9 4]] (REQUEST)
D 4.326443080 _13_ MAC  COL 0 AODV 106 [0 ffffffff 14 800] [energy 85.691085 ei 4.304 es 0.000 et 0.001 er 0.004] ------- [20:255 -1:255 29 0] [0x2 2 1 [16 0] [9 4]] (REQUEST)
D 4.326443112 _17_ MAC  COL 0 AODV 106 [0 ffffffff 14 800] [energy 85.691082 ei 4.304 es 0.000 et 0.001 er 0.004] ------- [20:255 -1:255 29 0] [0x2 2 1 [16 0] [9 4]] (REQUEST)
D 4.326443126 _18_ MAC  COL 0 AODV 106 [0 ffffffff 1a 800] [energy 85.691085 ei 4.304 es 0.000 et 0.001 er 0.004] ------- [26:255 -1:255 28 0] [0x2 3 1 [5 0] [4 4]] (REQUEST)
D 4.326443167 _10_ MAC  COL 0 AODV 106 [0 ffffffff 1a 800] [energy 85.691082 ei 4.304 es 0.000 et 0.001 er 0.004] ------- [26:255 -1:255 28 0] [0x2 3 1 [5 0] [4 4]] (REQUEST)
D 4.326443283 _8_ MAC  COL 0 AODV 106 [0 ffffffff 14 800] [energy 85.691933 ei 4.304 es 0.000 et 0.000 er 0.004] ------- [20:255 -1:255 29 0] [0x2 2 1 [16 0] [9 4]] (REQUEST)
D 4.327290385 _33_ MAC  COL 0 AODV 106 [0 ffffffff 1a 800] [energy 85.691931 ei 4.304 es 0.000 et 0.000 er 0.004] ------- [26:255 -1:255 28 0] [0x2 3 1 [5 0] [4 4]] (REQUEST)
D 4.327290425 _31_ MAC  COL 0 AODV 106 [0 ffffffff 19 800] [energy 85.691125 ei 4.305 es 0.000 et 0.000 er 0.004] ------- [25:255 -1:255 28 0] [0x2 3 1 [5 0] [4 4]] (REQUEST)
D 4.327290437 _35_ MAC  COL 0 AODV 106 [0 ffffffff 19 800] [energy 85.691931 ei 4.304 es 0.000 et 0.000 er 0.004] ------- [25:255 -1:255 28 0] [0x2 3 1 [5 0] [4 4]] (REQUEST)
D 4.327290485 _14_ MAC  COL 0 AODV 106 [0 ffffffff 14 800] [energy 85.691931 ei 4.304 es 0.000 et 0.000 er 0.004] ------- [20:255 -1:255 29 0] [0x2 2 1 [16 0] [9 4]] (REQUEST)
D 4.327290498 _36_ MAC  COL 0 AODV 106 [0 ffffffff 19 800] [energy 85.691932 ei 4.304 es 0.000 et 0.000 er 0.004] ------- [25:255 -1:255 28 0] [0x2 3 1 [5 0] [4 4]] (REQUEST)
D 4.327290610 _43_ MAC  COL 0 AODV 106 [0 ffffffff 19 800] [energy 85.691931 ei 4.304 es 0.000 et 0.000 er 0.004] ------- [25:255 -1:255 28 0] [0x2 3 1 [5 0] [4 4]] (REQUEST)
D 4.327290675 _12_ MAC  COL 0 AODV 106 [0 ffffffff 14 800] [energy 85.691933 ei 4.304 es 0.000 et 0.000 er 0.004] ------- [20:255 -1:255 29 0] [0x2 2 1 [16 0] [9 4]] (REQUEST)
D 4.327290761 _34_ MAC  COL 0 AODV 106 [0 ffffffff 19 800] [energy 85.691602 ei 4.304 es 0.000 et 0.000 er 0.004] ------- [25:255 -1:255 28 0] [0x2 3 1 [5 0] [4 4]] (REQUEST)
D 4.327290769 _27_ MAC  COL 0 AODV 106 [0 ffffffff 19 800] [energy 85.691082 ei 4.304 es 0.000 et 0.001 er 0.004] ------- [25:255 -1:255 28 0] [0x2 3 1 [5 0] [4 4]] (REQUEST)
D 4.327290874 _28_ MAC  COL 0 AODV 106 [0 ffffffff 19 800] [energy 85.690278 ei 4.305 es 0.000 et 0.001 er 0.004] ------- [25:255 -1:255 28 0] [0x2 3 1 [5 0] [4 4]] (REQUEST)
D 4.327290884 _0_ MAC  COL 0 AODV 106 [0 ffffffff 19 800] [energy 85.691084 ei 4.304 es 0.000 et 0.001 er 0.004] ------- [25:255 -1:255 28 0] [0x2 3 1 [5 0] [4 4]] (REQUEST)
D 4.327290888 _30_ MAC  COL 0 AODV 106 [0 ffffffff 19 800] [energy 85.691601 ei 4.304 es 0.000 et 0.000 er 0.004] ------- [25:255 -1:255 28 0] [0x2 3 1 [5 0] [4 4]] (REQUEST)
D 4.327290904 _24_ MAC  COL 0 AODV 106 [0 ffffffff 19 800] [energy 85.690753 ei 4.304 es 0.000 et 0.001 er 0.004] ------- [25:255 -1:255 28 0] [0x2 3 1 [5 0] [4 4]] (REQUEST)