D 0.003898931 _41_ MAC  COL 0 AODV 106 [0 ffffffff 6 800] [energy 89.998619 ei 0.001 es 0.000 et 0.000 er 0.001] ------- [6:255 -1:255 29 0] [0x2 2 1 [0 0] [13 4]] (REQUEST)
D 0.003898957 _8_ MAC  COL 0 AODV 106 [0 ffffffff 6 800] [energy 89.998619 ei 0.001 es 0.000 et 0.000 er 0.001] ------- [6:255 -1:255 29 0] [0x2 2 1 [0 0] [13 4]] (REQUEST)
D 0.003898992 _18_ MAC  COL 0 AODV 106 [0 ffffffff 9 800] [energy 89.998619 ei 0.001 es 0.000 et 0.000 er 0.001] ------- [9:255 -1:255 29 0] [0x2 2 1 [5 0] [53 4]] (REQUEST)
D 0.003899072 _41_ MAC  COL 0 AODV 106 [0 ffffffff 9 800] [energy 89.998619 ei 0.001 es 0.000 et 0.000 er 0.001] ------- [9:255 -1:255 29 0] [0x2 2 1 [5 0] [53 4]] (REQUEST)
D 0.003899074 _52_ MAC  COL 0 AODV 106 [0 ffffffff 6 800] [energy 89.998619 ei 0.001 es 0.000 et 0.000 er 0.001] ------- [6:255 -1:255 29 0] [0x2 2 1 [0 0] [13 4]] (REQUEST)
D 0.003899079 _8_ MAC  COL 0 AODV 106 [0 ffffffff 9 800] [energy 89.998619 ei 0.001 es 0.000 et 0.000 er 0.001] ------- [9:255 -1:255 29 0] [0x2 2 1 [5 0] [53 4]] (REQUEST)
D 0.003899155 _36_ MAC  COL 0 AODV 106 [0 ffffffff 9 800] [energy 89.998619 ei 0.001 es 0.000 et 0.000 er 0.001] ------- [9:255 -1:255 29 0] [0x2 2 1 [5 0] [53 4]] (REQUEST)
D 0.003899175 _13_ MAC  COL 0 AODV 106 [0 ffffffff 6 800] [energy 89.997771 ei 0.001 es 0.000 et 0.001 er 0.001] ------- [6:255 -1:255 29 0] [0x2 2 1 [0 0] [13 4]] (REQUEST)
D 0.003899227 _52_ MAC  COL 0 AODV 106 [0 ffffffff 9 800] [energy 89.998619 ei 0.001 es 0.000 et 0.000 er 0.001] ------- [9:255 -1:255 29 0] [0x2 2 1 [5 0] [53 4]] (REQUEST)
D 0.003899229 _43_ MAC  COL 0 AODV 106 [0 ffffffff 6 800] [energy 89.998619 ei 0.001 es 0.000 et 0.000 er 0.001] ------- [6:255 -1:255 29 0] [0x2 2 1 [0 0] [13 4]] (REQUEST)
D 0.003899302 _28_ MAC  COL 0 AODV 106 [0 ffffffff 6 800] [energy 89.998619 ei 0.001 es 0.000 et 0.000 er 0.001] ------- [6:255 -1:255 29 0] [0x2 2 1 [0 0] [13 4]] (REQUEST)
D 0.003899318 _2_ MAC  COL 0 AODV 106 [0 ffffffff 6 800] [energy 89.998619 ei 0.001 es 0.000 et 0.000 er 0.001] ------- [6:255 -1:255 29 0] [0x2 2 1 [0 0] [13 4]] (REQUEST)
D 0.003899321 _13_ MAC  COL 0 AODV 106 [0 ffffffff 9 800] [energy 89.997771 ei 0.001 es 0.000 et 0.001 er 0.001] ------- [9:255 -1:255 29 0] [0x2 2 1 [5 0] [53 4]] (REQUEST)
D 0.003899341 _43_ MAC  COL 0 AODV 106 [0 ffffffff 9 800] [energy 89.998619 ei 0.001 es 0.000 et 0.000 er 0.001] ------- [9:255 -1:255 29 0] [0x2 2 1 [5 0] [53 4]] (REQUEST)
D 0.003899386 _28_ MAC  COL 0 AODV 106 [0 ffffffff 9 800] [energy 89.998619 ei 0.001 es 0.000 et 0.000 er 0.001] ------- [9:255 -1:255 29 0] [0x2 2 1 [5 0] [53 4]] (REQUEST)
D 0.003899395 _2_ MAC  COL 0 AODV 106 [0 ffffffff 9 800] [energy 89.998619 ei 0.001 es 0.000 et 0.000 er 0.001] ------- [9:255 -1:255 29 0] [0x2 2 1 [5 0] [53 4]] (REQUEST)
D 0.003899395 _12_ MAC  COL 0 AODV 106 [0 ffffffff 6 800] [energy 89.998619 ei 0.001 es 0.000 et 0.000 er 0.001] ------- [6:255 -1:255 29 0] [0x2 2 1 [0 0] [13 4]] (REQUEST)
D 0.003899426 _35_ MAC  COL 0 AODV 106 [0 ffffffff 6 800] [energy 89.998619 ei 0.001 es 0.000 et 0.000 er 0.001] ------- [6:255 -1:255 29 0] [0x2 2 1 [0 0] [13 4]] (REQUEST)
D 0.003899491 _29_ MAC  COL 0 AODV 106 [0 ffffffff 6 800] [energy 89.998619 ei 0.001 es 0.000 et 0.000 er 0.001] ------- [6:255 -1:255 29 0] [0x2 2 1 [0 0] [13 4]] (REQUEST)
D 0.003899493 _12_ MAC  COL 0 AODV 106 [0 ffffffff 9 800] [energy 89.998619 ei 0.001 es 0.000 et 0.000 er 0.001] ------- [9:255 -1:255 29 0] [0x2 2 1 [5 0] [53 4]] (REQUEST)
D 0.003899523 _49_ MAC  COL 0 AODV 106 [0 ffffffff 6 800] [energy 89.998619 ei 0.001 es 0.000 et 0.000 er 0.001] ------- [6:255 -1:255 29 0] [0x2 2 1 [0 0] [13 4]] (REQUEST)
D 0.003899555 _35_ MAC  COL 0 AODV 106 [0 ffffffff 9 800] [energy 89.998619 ei 0.001 es 0.000 et 0.000 er 0.001] ------- [9:255 -1:255 29 0] [0x2 2 1 [5 0] [53 4]] (REQUEST)
D 0.003899604 _49_ MAC  COL 0 AODV 106 [0 ffffffff 9 800] [energy 89.998619 ei 0.001 es 0.000 et 0.000 er 0.001] ------- [9:255 -1:255 29 0] [0x2 2 1 [5 0] [53 4]] (REQUEST)
D 0.003899604 _42_ MAC  COL 0 AODV 106 [0 ffffffff 6 800] [energy 89.998619 ei 0.001 es 0.000 et 0.000 er 0.001] ------- [6:255 -1:255 29 0] [0x2 2 1 [0 0] [13 4]] (REQUEST)
D 0.003899624 _29_ MAC  COL 0 AODV 106 [0 ffffffff 9 800] [energy 89.998619 ei 0.001 es 0.000 et 0.000 er 0.001] ------- [9:255 -1:255 29 0] [0x2 2 1 [5 0] [53 4]] (REQUEST)
D 0.003899643 _1_ MAC  COL 0 AODV 106 [0 ffffffff 6 800] [energy 89.998619 ei 0.001 es 0.000 et 0.000 er 0.001] ------- [6:255 -1:255 29 0] [0x2 2 1 [0 0] [13 4]] (REQUEST)
D 0.003899645 _47_ MAC  COL 0 AODV 106 [0 ffffffff 6 800] [energy 89.998619 ei 0.001 es 0.000 et 0.000 er 0.001] ------- [6:255 -1:255 29 0] [0x2 2 1 [0 0] [13 4]] (REQUEST)
D 0.003899663 _31_ MAC  COL 0 AODV 106 [0 ffffffff 6 800] [energy 89.998619 ei 0.001 es 0.000 et 0.000 er 0.001] ------- [6:255 -1:255 29 0] [0x2 2 1 [0 0] [13 4]] (REQUEST)
D 0.003899689 _34_ MAC  COL 0 AODV 106 [0 ffffffff 6 800] [energy 89.998619 ei 0.001 es 0.000 et 0.000 er 0.001] ------- [6:255 -1:255 29 0] [0x2 2 1 [0 0] [13 4]] (REQUEST)
D 0.003899692 _3_ MAC  COL 0 AODV 106 [0 ffffffff 6 800] [energy 89.998619 ei 0.001 es 0.000 et 0.000 er 0.001] ------- [6:255 -1:255 29 0] [0x2 2 1 [0 0] [13 4]] (REQUEST)
D 0.003899786 _50_ MAC  COL 0 AODV 106 [0 ffffffff 6 800] [energy 89.998619 ei 0.001 es 0.000 et 0.000 er 0.001] ------- [6:255 -1:255 29 0] [0x2 2 1 [0 0] [13 4]] (REQUEST)
D 0.003899793 _32_ MAC  COL 0 AODV 106 [0 ffffffff 6 800] [energy 89.998619 ei 0.001 es 0.000 et 0.000 er 0.001] ------- [6:255 -1:255 29 0] [0x2 2 1 [0 0] [13 4]] (REQUEST)
D 0.003899799 _21_ MAC  COL 0 AODV 106 [0 ffffffff 6 800] [energy 89.998619 ei 0.001 es 0.000 et 0.000 er 0.001] ------- [6:255 -1:255 29 0] [0x2 2 1 [0 0] [13 4]] (REQUEST)
D 0.003899834 _37_ MAC  COL 0 AODV 106 [0 ffffffff 6 800] [energy 89.998619 ei 0.001 es 0.000 et 0.000 er 0.001] ------- [6:255 -1:255 29 0] [0x2 2 1 [0 0] [13 4]] (REQUEST)
D 0.003899907 _51_ MAC  COL 0 AODV 106 [0 ffffffff 6 800] [energy 89.998619 ei 0.001 es 0.000 et 0.000 er 0.001] ------- [6:255 -1:255 29 0] [0x2 2 1 [0 0] [13 4]] (REQUEST)
D 0.003899928 _27_ MAC  COL 0 AODV 106 [0 ffffffff 6 800] [energy 89.998619 ei 0.001 es 0.000 et 0.000 er 0.001] ------- [6:255 -1:255 29 0] [0x2 2 1 [0 0] [13 4]] (REQUEST)
D 0.003899935 _46_ MAC  COL 0 AODV 106 [0 ffffffff 6 800] [energy 89.998619 ei 0.001 es 0.000 et 0.000 er 0.001] ------- [6:255 -1:255 29 0] [0x2 2 1 [0 0] [13 4]] (REQUEST)
D 0.003899949 _26_ MAC  COL 0 AODV 106 [0 ffffffff 6 800] [energy 89.998619 ei 0.001 es 0.000 et 0.000 er 0.001] ------- [6:255 -1:255 29 0] [0x2 2 1 [0 0] [13 4]] (REQUEST)
D 0.003899965 _10_ MAC  COL 0 AODV 106 [0 ffffffff 6 800] [energy 89.998619 ei 0.001 es 0.000 et 0.000 er 0.001] ------- [6:255 -1:255 29 0] [0x2 2 1 [0 0] [13 4]] (REQUEST)
D 0.003899974 _22_ MAC  COL 0 AODV 106 [0 ffffffff 6 800] [energy 89.998619 ei 0.001 es 0.000 et 0.000 er 0.001] ------- [6:255 -1:255 29 0] [0x2 2 1 [0 0] [13 4]] (REQUEST)
D 0.004746992 _18_ MAC  COL 0 AODV 106 [0 ffffffff 14 800] [energy 89.998619 ei 0.001 es 0.000 et 0.000 er 0.001] ------- [20:255 -1:255 29 0] [0x2 2 1 [5 0] [53 4]] (REQUEST)
D 0.004747072 _41_ MAC  COL 0 AODV 106 [0 ffffffff 14 800] [energy 89.998619 ei 0.001 es 0.000 et 0.000 er 0.001] ------- [20:255 -1:255 29 0] [0x2 2 1 [5 0] [53 4]] (REQUEST)
D 0.004747079 _8_ MAC  COL 0 AODV 106 [0 ffffffff 14 800] [energy 89.998619 ei 0.001 es 0.000 et 0.000 er 0.001] ------- [20:255 -1:255 29 0] [0x2 2 1 [5 0] [53 4]] (REQUEST)
D 0.004747155 _36_ MAC  COL 0 AODV 106 [0 ffffffff 14 800] [energy 89.998619 ei 0.001 es 0.000 et 0.000 er 0.001] ------- [20:255 -1:255 29 0] [0x2 2 1 [5 0] [53 4]] (REQUEST)
D 0.004747227 _52_ MAC  COL 0 AODV 106 [0 ffffffff 14 800] [energy 89.998619 ei 0.001 es 0.000 et 0.000 er 0.001] ------- [20:255 -1:255 29 0] [0x2 2 1 [5 0] [53 4]] (REQUEST)
D 0.004747321 _13_ MAC  COL 0 AODV 106 [0 ffffffff 14 800] [energy 89.997771 ei 0.001 es 0.000 et 0.001 er 0.001] ------- [20:255 -1:255 29 0] [0x2 2 1 [5 0] [53 4]] (REQUEST)
D 0.004747341 _43_ MAC  COL 0 AODV 106 [0 ffffffff 14 800] [energy 89.998619 ei 0.001 es 0.000 et 0.000 er 0.001] ------- [20:255 -1:255 29 0] [0x2 2 1 [5 0] [53 4]] (REQUEST)
D 0.004747386 _28_ MAC  COL 0 AODV 106 [0 ffffffff 14 800] [energy 89.998619 ei 0.001 es 0.000 et 0.000 er 0.001] ------- [20:255 -1:255 29 0] [0x2 2 1 [5 0] [53 4]] (REQUEST)
D 0.004747395 _2_ MAC  COL 0 AODV 106 [0 ffffffff 14 800] [energy 89.998619 ei 0.001 es 0.000 et 0.000 er 0.001] ------- [20:255 -1:255 29 0] [0x2 2 1 [5 0] [53 4]] (REQUEST)
D 0.004747493 _12_ MAC  COL 0 AODV 106 [0 ffffffff 14 800] [energy 89.998619 ei 0.001 es 0.000 et 0.000 er 0.001] ------- [20:255 -1:255 29 0] [0x2 2 1 [5 0] [53 4]] (REQUEST)
D 0.004747555 _35_ MAC  COL 0 AODV 106 [0 ffffffff 14 800] [energy 89.998619 ei 0.001 es 0.000 et 0.000 er 0.001] ------- [20:255 -1:255 29 0] [0x2 2 1 [5 0] [53 4]] (REQUEST)
D 0.004747604 _49_ MAC  COL 0 AODV 106 [0 ffffffff 14 800] [energy 89.998619 ei 0.001 es 0.000 et 0.000 er 0.001] ------- [20:255 -1:255 29 0] [0x2 2 1 [5 0] [53 4]] (REQUEST)
D 0.004747624 _29_ MAC  COL 0 AODV 106 [0 ffffffff 14 800] [energy 89.998619 ei 0.001 es 0.000 et 0.000 er 0.001] ------- [20:255 -1:255 29 0] [0x2 2 1 [5 0] [53 4]] (REQUEST)
D 0.008036791 _3_ MAC  COL 0 AODV 106 [0 ffffffff 2a 800] [energy 89.997280 ei 0.001 es 0.000 et 0.000 er 0.001] ------- [42:255 -1:255 28 0] [0x2 3 1 [5 0] [53 4]] (REQUEST)
D 0.008036809 _32_ MAC  COL 0 AODV 106 [0 ffffffff 2a 800] [energy 89.997280 ei 0.001 es 0.000 et 0.000 er 0.001] ------- [42:255 -1:255 28 0] [0x2 3 1 [5 0] [53 4]] (REQUEST)
D 0.008036903 _37_ MAC  COL 0 AODV 106 [0 ffffffff 22 800] [energy 89.997280 ei 0.001 es 0.000 et 0.000 er 0.001] ------- [34:255 -1:255 28 0] [0x2 3 1 [5 0] [53 4]] (REQUEST)
D 0.008036924 _39_ MAC  COL 0 AODV 106 [0 ffffffff 2a 800] [energy 89.997280 ei 0.001 es 0.000 et 0.000 er 0.001] ------- [42:255 -1:255 28 0] [0x2 3 1 [5 0] [53 4]] (REQUEST)
D 0.008036934 _47_ MAC  COL 0 AODV 106 [0 ffffffff 2a 800] [energy 89.997280 ei 0.001 es 0.000 et 0.000 er 0.001] ------- [42:255 -1:255 28 0] [0x2 3 1 [5 0] [53 4]] (REQUEST)
D 0.008036935 _23_ MAC  COL 0 AODV 106 [0 ffffffff 2a 800] [energy 89.997280 ei 0.001 es 0.000 et 0.000 er 0.001] ------- [42:255 -1:255 28 0] [0x2 3 1 [5 0] [53 4]] (REQUEST)
D 0.008036956 _11_ MAC  COL 0 AODV 106 [0 ffffffff 2a 800] [energy 89.997280 ei 0.001 es 0.000 et 0.000 er 0.001] ------- [42:255 -1:255 28 0] [0x2 3 1 [5 0] [53 4]] (REQUEST)
D 0.008036971 _21_ MAC  COL 0 AODV 106 [0 ffffffff 22 800] [energy 89.997280 ei 0.001 es 0.000 et 0.000 er 0.001] ------- [34:255 -1:255 28 0] [0x2 3 1 [5 0] [53 4]] (REQUEST)
D 0.008037028 _35_ MAC  COL 0 AODV 106 [0 ffffffff 2a 800] [energy 89.997280 ei 0.001 es 0.000 et 0.000 er 0.001] ------- [42:255 -1:255 28 0] [0x2 3 1 [5 0] [53 4]] (REQUEST)
D 0.008037066 _12_ MAC  COL 0 AODV 106 [0 ffffffff 2a 800] [energy 89.996432 ei 0.001 es 0.000 et 0.001 er 0.001] ------- [42:255 -1:255 28 0] [0x2 3 1 [5 0] [53 4]] (REQUEST)
D 0.008037086 _44_ MAC  COL 0 AODV 106 [0 ffffffff 2a 800] [energy 89.997280 ei 0.001 es 0.000 et 0.000 er 0.001] ------- [42:255 -1:255 28 0] [0x2 3 1 [5 0] [53 4]] (REQUEST)
D 0.008037103 _0_ MAC  COL 0 AODV 106 [0 ffffffff 2a 800] [energy 89.997280 ei 0.001 es 0.000 et 0.000 er 0.001] ------- [42:255 -1:255 28 0] [0x2 3 1 [5 0] [53 4]] (REQUEST)
D 0.008037119 _46_ MAC  COL 0 AODV 106 [0 ffffffff 22 800] [energy 89.997280 ei 0.001 es 0.000 et 0.000 er 0.001] ------- [34:255 -1:255 28 0] [0x2 3 1 [5 0] [53 4]] (REQUEST)
D 0.008037143 _6_ MAC  COL 0 AODV 106 [0 ffffffff 2a 800] [energy 89.996432 ei 0.001 es 0.000 et 0.001 er 0.001] ------- [42:255 -1:255 28 0] [0x2 3 1 [5 0] [53 4]] (REQUEST)
D 0.008037151 _27_ MAC  COL 0 AODV 106 [0 ffffffff 22 800] [energy 89.997280 ei 0.001 es 0.000 et 0.000 er 0.001] ------- [34:255 -1:255 28 0] [0x2 3 1 [5 0] [53 4]] (REQUEST)
D 0.008037169 _1_ MAC  COL 0 AODV 106 [0 ffffffff 2a 800] [energy 89.997280 ei 0.001 es 0.000 et 0.000 er 0.001] ------- [42:255 -1:255 28 0] [0x2 3 1 [5 0] [53 4]] (REQUEST)
D 0.008037170 _0_ MAC  COL 0 AODV 106 [0 ffffffff 22 800] [energy 89.997280 ei 0.001 es 0.000 et 0.000 er 0.001] ------- [34:255 -1:255 28 0] [0x2 3 1 [5 0] [53 4]] (REQUEST)
D 0.008037178 _43_ MAC  COL 0 AODV 106 [0 ffffffff 2a 800] [energy 89.997280 ei 0.001 es 0.000 et 0.000 er 0.001] ------- [42:255 -1:255 28 0] [0x2 3 1 [5 0] [53 4]] (REQUEST)
D 0.008037196 _5_ MAC  COL 0 AODV 106 [0 ffffffff 2a 800] [energy 89.996592 ei 0.001 es 0.000 et 0.001 er 0.001] ------- [42:255 -1:255 28 0] [0x2 3 1 [5 0] [53 4]] (REQUEST)
D 0.008037225 _49_ MAC  COL 0 AODV 106 [0 ffffffff 2a 800] [energy 89.997280 ei 0.001 es 0.000 et 0.000 er 0.001] ------- [42:255 -1:255 28 0] [0x2 3 1 [5 0] [53 4]] (REQUEST)
D 0.008037226 _6_ MAC  COL 0 AODV 106 [0 ffffffff 22 800] [energy 89.996432 ei 0.001 es 0.000 et 0.001 er 0.001] ------- [34:255 -1:255 28 0] [0x2 3 1 [5 0] [53 4]] (REQUEST)
D 0.008037268 _2_ MAC  COL 0 AODV 106 [0 ffffffff 2a 800] [energy 89.996432 ei 0.001 es 0.000 et 0.001 er 0.001] ------- [42:255 -1:255 28 0] [0x2 3 1 [5 0] [53 4]] (REQUEST)
D 0.008037285 _24_ MAC  COL 0 AODV 106 [0 ffffffff 2a 800] [energy 89.996432 ei 0.001 es 0.000 et 0.001 er 0.001] ------- [42:255 -1:255 28 0] [0x2 3 1 [5 0] [53 4]] (REQUEST)
D 0.008037286 _44_ MAC  COL 0 AODV 106 [0 ffffffff 22 800] [energy 89.997280 ei 0.001 es 0.000 et 0.000 er 0.001] ------- [34:255 -1:255 28 0] [0x2 3 1 [5 0] [53 4]] (REQUEST)
D 0.008037293 _11_ MAC  COL 0 AODV 106 [0 ffffffff 22 800] [energy 89.997280 ei 0.001 es 0.000 et 0.000 er 0.001] ------- [34:255 -1:255 28 0] [0x2 3 1 [5 0] [53 4]] (REQUEST)
D 0.008037314 _4_ MAC  COL 0 AODV 106 [0 ffffffff 22 800] [energy 89.997280 ei 0.001 es 0.000 et 0.000 er 0.001] ------- [34:255 -1:255 28 0] [0x2 3 1 [5 0] [53 4]] (REQUEST)
D 0.008037320 _39_ MAC  COL 0 AODV 106 [0 ffffffff 22 800] [energy 89.997280 ei 0.001 es 0.000 et 0.000 er 0.001] ------- [34:255 -1:255 28 0] [0x2 3 1 [5 0] [53 4]] (REQUEST)
D 0.008037328 _48_ MAC  COL 0 AODV 106 [0 ffffffff 2a 800] [energy 89.997280 ei 0.001 es 0.000 et 0.000 er 0.001] ------- [42:255 -1:255 28 0] [0x2 3 1 [5 0] [53 4]] (REQUEST)
D 0.008037334 _8_ MAC  COL 0 AODV 106 [0 ffffffff 2a 800] [energy 89.997279 ei 0.001 es 0.000 et 0.000 er 0.001] ------- [42:255 -1:255 28 0] [0x2 3 1 [5 0] [53 4]] (REQUEST)
D 0.008037354 _35_ MAC  COL 0 AODV 106 [0 ffffffff 22 800] [energy 89.997280 ei 0.001 es 0.000 et 0.000 er 0.001] ------- [34:255 -1:255 28 0] [0x2 3 1 [5 0] [53 4]] (REQUEST)
D 0.008037379 _52_ MAC  COL 0 AODV 106 [0 ffffffff 2a 800] [energy 89.997280 ei 0.001 es 0.000 et 0.000 er 0.001] ------- [42:255 -1:255 28 0] [0x2 3 1 [5 0] [53 4]] (REQUEST)
D 0.008037392 _38_ MAC  COL 0 AODV 106 [0 ffffffff 2a 800] [energy 89.997280 ei 0.001 es 0.000 et 0.000 er 0.001] ------- [42:255 -1:255 28 0] [0x2 3 1 [5 0] [53 4]] (REQUEST)
D 0.008037397 _28_ MAC  COL 0 AODV 106 [0 ffffffff 2a 800] [energy 89.997279 ei 0.001 es 0.000 et 0.000 er 0.001] ------- [42:255 -1:255 28 0] [0x2 3 1 [5 0] [53 4]] (REQUEST)
D 0.008037435 _52_ MAC  COL 0 AODV 106 [0 ffffffff 22 800] [energy 89.997280 ei 0.001 es 0.000 et 0.000 er 0.001] ------- [34:255 -1:255 28 0] [0x2 3 1 [5 0] [53 4]] (REQUEST)
D 0.008037453 _18_ MAC  COL 0 AODV 106 [0 ffffffff 2a 800] [energy 89.997279 ei 0.001 es 0.000 et 0.000 er 0.001] ------- [42:255 -1:255 28 0] [0x2 3 1 [5 0] [53 4]] (REQUEST)
D 0.008037461 _37_ MAC  COL 0 AODV 106 [0 ffffffff 2a 800] [energy 89.997280 ei 0.001 es 0.000 et 0.000 er 0.001] ------- [42:255 -1:255 28 0] [0x2 3 1 [5 0] [53 4]] (REQUEST)
D 0.008037476 _27_ MAC  COL 0 AODV 106 [0 ffffffff 2a 800] [energy 89.997280 ei 0.001 es 0.000 et 0.000 er 0.001] ------- [42:255 -1:255 28 0] [0x2 3 1 [5 0] [53 4]] (REQUEST)
D 0.008037483 _33_ MAC  COL 0 AODV 106 [0 ffffffff 22 800] [energy 89.997280 ei 0.001 es 0.000 et 0.000 er 0.001] ------- [34:255 -1:255 28 0] [0x2 3 1 [5 0] [53 4]] (REQUEST)
D 0.008037486 _4_ MAC  COL 0 AODV 106 [0 ffffffff 2a 800] [energy 89.997280 ei 0.001 es 0.000 et 0.000 er 0.001] ------- [42:255 -1:255 28 0] [0x2 3 1 [5 0] [53 4]] (REQUEST)
D 0.008037493 _19_ MAC  COL 0 AODV 106 [0 ffffffff 22 800] [energy 89.997280 ei 0.001 es 0.000 et 0.000 er 0.001] ------- [34:255 -1:255 28 0] [0x2 3 1 [5 0] [53 4]] (REQUEST)
D 0.008037497 _43_ MAC  COL 0 AODV 106 [0 ffffffff 22 800] [energy 89.997280 ei 0.001 es 0.000 et 0.000 er 0.001] ------- [34:255 -1:255 28 0] [0x2 3 1 [5 0] [53 4]] (REQUEST)
D 0.008037503 _9_ MAC  COL 0 AODV 106 [0 ffffffff 2a 800] [energy 89.996431 ei 0.001 es 0.000 et 0.001 er 0.001] ------- [42:255 -1:255 28 0] [0x2 3 1 [5 0] [53 4]] (REQUEST)
D 0.008037505 _13_ MAC  COL 0 AODV 106 [0 ffffffff 2a 800] [energy 89.996431 ei 0.001 es 0.000 et 0.001 er 0.001] ------- [42:255 -1:255 28 0] [0x2 3 1 [5 0] [53 4]] (REQUEST)
D 0.008037513 _13_ MAC  COL 0 AODV 106 [0 ffffffff 19 800] [energy 89.996431 ei 0.001 es 0.000 et 0.001 er 0.001] ------- [25:255 -1:255 29 0] [0x2 2 1 [0 0] [13 4]] (REQUEST)
D 0.008037516 _46_ MAC  COL 0 AODV 106 [0 ffffffff 2a 800] [energy 89.997280 ei 0.001 es 0.000 et 0.000 er 0.001] ------- [42:255 -1:255 28 0] [0x2 3 1 [5 0] [53 4]] (REQUEST)
D 0.008037519 _38_ MAC  COL 0 AODV 106 [0 ffffffff 22 800] [energy 89.997280 ei 0.001 es 0.000 et 0.000 er 0.001] ------- [34:255 -1:255 28 0] [0x2 3 1 [5 0] [53 4]] (REQUEST)
D 0.008037524 _21_ MAC  COL 0 AODV 106 [0 ffffffff 2a 800] [energy 89.997280 ei 0.001 es 0.000 et 0.000 er 0.001] ------- [42:255 -1:255 28 0] [0x2 3 1 [5 0] [53 4]] (REQUEST)
D 0.008037525 _48_ MAC  COL 0 AODV 106 [0 ffffffff 22 800] [energy 89.997280 ei 0.001 es 0.000 et 0.000 er 0.001] ------- [34:255 -1:255 28 0] [0x2 3 1 [5 0] [53 4]] (REQUEST)
D 0.008037539 _14_ MAC  COL 0 AODV 106 [0 ffffffff 22 800] [energy 89.997280 ei 0.001 es 0.000 et 0.000 er 0.001] ------- [34:255 -1:255 28 0] [0x2 3 1 [5 0] [53 4]] (REQUEST)
D 0.008037541 _10_ MAC  COL 0 AODV 106 [0 ffffffff 19 800] [energy 89.997280 ei 0.001 es 0.000 et 0.000 er 0.001] ------- [25:255 -1:255 29 0] [0x2 2 1 [0 0] [13 4]] (REQUEST)
D 0.008037542 _41_ MAC  COL 0 AODV 106 [0 ffffffff 2a 800] [energy 89.997279 ei 0.001 es 0.000 et 0.000 er 0.001] ------- [42:255 -1:255 28 0] [0x2 3 1 [5 0] [53 4]] (REQUEST)
D 0.008037544 _20_ MAC  COL 0 AODV 106 [0 ffffffff 2a 800] [energy 89.996431 ei 0.001 es 0.000 et 0.001 er 0.001] ------- [42:255 -1:255 28 0] [0x2 3 1 [5 0] [53 4]] (REQUEST)
D 0.008037544 _10_ MAC  COL 0 AODV 106 [0 ffffffff 22 800] [energy 89.997280 ei 0.001 es 0.000 et 0.000 er 0.001] ------- [34:255 -1:255 28 0] [0x2 3 1 [5 0] [53 4]] (REQUEST)
D 0.008037556 _41_ MAC  COL 0 AODV 106 [0 ffffffff 22 800] [energy 89.997279 ei 0.001 es 0.000 et 0.000 er 0.001] ------- [34:255 -1:255 28 0] [0x2 3 1 [5 0] [53 4]] (REQUEST)
D 0.008037638 _9_ MAC  COL 0 AODV 106 [0 ffffffff 22 800] [energy 89.996431 ei 0.001 es 0.000 et 0.001 er 0.001] ------- [34:255 -1:255 28 0] [0x2 3 1 [5 0] [53 4]] (REQUEST)
D 0.008037651 _18_ MAC  COL 0 AODV 106 [0 ffffffff 22 800] [energy 89.997279 ei 0.001 es 0.000 et 0.000 er 0.001] ------- [34:255 -1:255 28 0] [0x2 3 1 [5 0] [53 4]] (REQUEST)
D 0.008037662 _8_ MAC  COL 0 AODV 106 [0 ffffffff 22 800] [energy 89.997279 ei 0.001 es 0.000 et 0.000 er 0.001] ------- [34:255 -1:255 28 0] [0x2 3 1 [5 0] [53 4]] (REQUEST)
D 0.008037694 _29_ MAC  COL 0 AODV 106 [0 ffffffff 19 800] [energy 89.997279 ei 0.001 es 0.000 et 0.000 er 0.001] ------- [25:255 -1:255 29 0] [0x2 2 1 [0 0] [13 4]] (REQUEST)
D 0.008037725 _20_ MAC  COL 0 AODV 106 [0 ffffffff 22 800] [energy 89.996431 ei 0.001 es 0.000 et 0.001 er 0.001] ------- [34:255 -1:255 28 0] [0x2 3 1 [5 0] [53 4]] (REQUEST)
D 0.008037734 _2_ MAC  COL 0 AODV 106 [0 ffffffff 22 800] [energy 89.996431 ei 0.001 es 0.000 et 0.001 er 0.001] ------- [34:255 -1:255 28 0] [0x2 3 1 [5 0] [53 4]] (REQUEST)
D 0.008037798 _28_ MAC  COL 0 AODV 106 [0 ffffffff 22 800] [energy 89.997279 ei 0.001 es 0.000 et 0.000 er 0.001] ------- [34:255 -1:255 28 0] [0x2 3 1 [5 0] [53 4]] (REQUEST)
D 0.008037806 _51_ MAC  COL 0 AODV 106 [0 ffffffff 19 800] [energy 89.997279 ei 0.001 es 0.000 et 0.000 er 0.001] ------- [25:255 -1:255 29 0] [0x2 2 1 [0 0] [13 4]] (REQUEST)
D 0.008037814 _49_ MAC  COL 0 AODV 106 [0 ffffffff 22 800] [energy 89.997280 ei 0.001 es 0.000 et 0.000 er 0.001] ------- [34:255 -1:255 28 0] [0x2 3 1 [5 0] [53 4]] (REQUEST)
D 0.008037828 _50_ MAC  COL 0 AODV 106 [0 ffffffff 19 800] [energy 89.997279 ei 0.001 es 0.000 et 0.000 er 0.001] ------- [25:255 -1:255 29 0] [0x2 2 1 [0 0] [13 4]] (REQUEST)
D 0.008037860 _7_ MAC  COL 0 AODV 106 [0 ffffffff 19 800] [energy 89.997279 ei 0.001 es 0.000 et 0.000 er 0.001] ------- [25:255 -1:255 29 0] [0x2 2 1 [0 0] [13 4]] (REQUEST)
D 0.008884791 _3_ MAC  COL 0 AODV 106 [0 ffffffff 22 800] [energy 89.997280 ei 0.001 es 0.000 et 0.000 er 0.001] ------- [34:255 -1:255 28 0] [0x2 3 1 [5 0] [53 4]] (REQUEST)
D 0.008884809 _32_ MAC  COL 0 AODV 106 [0 ffffffff 22 800] [energy 89.997280 ei 0.001 es 0.000 et 0.000 er 0.001] ------- [34:255 -1:255 28 0] [0x2 3 1 [5 0] [53 4]] (REQUEST)
D 0.008884934 _47_ MAC  COL 0 AODV 106 [0 ffffffff 22 800] [energy 89.997280 ei 0.001 es 0.000 et 0.000 er 0.001] ------- [34:255 -1:255 28 0] [0x2 3 1 [5 0] [53 4]] (REQUEST)
D 0.008884935 _23_ MAC  COL 0 AODV 106 [0 ffffffff 22 800] [energy 89.997280 ei 0.001 es 0.000 et 0.000 er 0.001] ------- [34:255 -1:255 28 0] [0x2 3 1 [5 0] [53 4]] (REQUEST)
D 0.008885066 _12_ MAC  COL 0 AODV 106 [0 ffffffff 22 800] [energy 89.996432 ei 0.001 es 0.000 et 0.001 er 0.001] ------- [34:255 -1:255 28 0] [0x2 3 1 [5 0] [53 4]] (REQUEST)
D 0.008885169 _1_ MAC  COL 0 AODV 106 [0 ffffffff 22 800] [energy 89.997280 ei 0.001 es 0.000 et 0.000 er 0.001] ------- [34:255 -1:255 28 0] [0x2 3 1 [5 0] [53 4]] (REQUEST)
D 0.008885170 _0_ MAC  COL 0 AODV 106 [0 ffffffff 19 800] [energy 89.997280 ei 0.001 es 0.000 et 0.000 er 0.001] ------- [25:255 -1:255 29 0] [0x2 2 1 [0 0] [13 4]] (REQUEST)
D 0.008885196 _5_ MAC  COL 0 AODV 106 [0 ffffffff 19 800] [energy 89.996592 ei 0.001 es 0.000 et 0.001 er 0.001] ------- [25:255 -1:255 29 0] [0x2 2 1 [0 0] [13 4]] (REQUEST)
D 0.008885226 _6_ MAC  COL 0 AODV 106 [0 ffffffff 19 800] [energy 89.996432 ei 0.001 es 0.000 et 0.001 er 0.001] ------- [25:255 -1:255 29 0] [0x2 2 1 [0 0] [13 4]] (REQUEST)
D 0.008885285 _24_ MAC  COL 0 AODV 106 [0 ffffffff 19 800] [energy 89.996432 ei 0.001 es 0.000 et 0.001 er 0.001] ------- [25:255 -1:255 29 0] [0x2 2 1 [0 0] [13 4]] (REQUEST)
D 0.008885286 _44_ MAC  COL 0 AODV 106 [0 ffffffff 19 800] [energy 89.997280 ei 0.001 es 0.000 et 0.000 er 0.001] ------- [25:255 -1:255 29 0] [0x2 2 1 [0 0] [13 4]] (REQUEST)
D 0.008885293 _11_ MAC  COL 0 AODV 106 [0 ffffffff 19 800] [energy 89.997280 ei 0.001 es 0.000 et 0.000 er 0.001] ------- [25:255 -1:255 29 0] [0x2 2 1 [0 0] [13 4]] (REQUEST)
D 0.008885320 _39_ MAC  COL 0 AODV 106 [0 ffffffff 19 800] [energy 89.997280 ei 0.001 es 0.000 et 0.000 er 0.001] ------- [25:255 -1:255 29 0] [0x2 2 1 [0 0] [13 4]] (REQUEST)
D 0.008885354 _35_ MAC  COL 0 AODV 106 [0 ffffffff 19 800] [energy 89.997280 ei 0.001 es 0.000 et 0.000 er 0.001] ------- [25:255 -1:255 29 0] [0x2 2 1 [0 0] [13 4]] (REQUEST)
D 0.008885435 _52_ MAC  COL 0 AODV 106 [0 ffffffff 19 800] [energy 89.997280 ei 0.001 es 0.000 et 0.000 er 0.001] ------- [25:255 -1:255 29 0] [0x2 2 1 [0 0] [13 4]] (REQUEST)
D 0.008885461 _37_ MAC  COL 0 AODV 106 [0 ffffffff 19 800] [energy 89.997280 ei 0.001 es 0.000 et 0.000 er 0.001] ------- [25:255 -1:255 29 0] [0x2 2 1 [0 0] [13 4]] (REQUEST)
D 0.008885476 _27_ MAC  COL 0 AODV 106 [0 ffffffff 19 800] [energy 89.997280 ei 0.001 es 0.000 et 0.000 er 0.001] ------- [25:255 -1:255 29 0] [0x2 2 1 [0 0] [13 4]] (REQUEST)
D 0.008885486 _4_ MAC  COL 0 AODV 106 [0 ffffffff 19 800] [energy 89.997280 ei 0.001 es 0.000 et 0.000 er 0.001] ------- [25:255 -1:255 29 0] [0x2 2 1 [0 0] [13 4]] (REQUEST)
D 0.008885497 _43_ MAC  COL 0 AODV 106 [0 ffffffff 19 800] [energy 89.997280 ei 0.001 es 0.000 et 0.000 er 0.001] ------- [25:255 -1:255 29 0] [0x2 2 1 [0 0] [13 4]] (REQUEST)
D 0.008885513 _13_ MAC  COL 0 AODV 106 [0 ffffffff 22 800] [energy 89.996431 ei 0.001 es 0.000 et 0.001 er 0.001] ------- [34:255 -1:255 28 0] [0x2 3 1 [5 0] [53 4]] (REQUEST)
D 0.008885516 _46_ MAC  COL 0 AODV 106 [0 ffffffff 19 800] [energy 89.997280 ei 0.001 es 0.000 et 0.000 er 0.001] ------- [25:255 -1:255 29 0] [0x2 2 1 [0 0] [13 4]] (REQUEST)
D 0.008885519 _38_ MAC  COL 0 AODV 106 [0 ffffffff 19 800] [energy 89.997280 ei 0.001 es 0.000 et 0.000 er 0.001] ------- [25:255 -1:255 29 0] [0x2 2 1 [0 0] [13 4]] (REQUEST)
D 0.008885524 _21_ MAC  COL 0 AODV 106 [0 ffffffff 19 800] [energy 89.997280 ei 0.001 es 0.000 et 0.000 er 0.001] ------- [25:255 -1:255 29 0] [0x2 2 1 [0 0] [13 4]] (REQUEST)
D 0.008885525 _48_ MAC  COL 0 AODV 106 [0 ffffffff 19 800] [energy 89.997280 ei 0.001 es 0.000 et 0.000 er 0.001] ------- [25:255 -1:255 29 0] [0x2 2 1 [0 0] [13 4]] (REQUEST)
D 0.008885553 _33_ MAC  COL 0 AODV 106 [0 ffffffff 19 800] [energy 89.997280 ei 0.001 es 0.000 et 0.000 er 0.001] ------- [25:255 -1:255 29 0] [0x2 2 1 [0 0] [13 4]] (REQUEST)
D 0.008885556 _41_ MAC  COL 0 AODV 106 [0 ffffffff 19 800] [energy 89.997279 ei 0.001 es 0.000 et 0.000 er 0.001] ------- [25:255 -1:255 29 0] [0x2 2 1 [0 0] [13 4]] (REQUEST)
D 0.008885638 _9_ MAC  COL 0 AODV 106 [0 ffffffff 19 800] [energy 89.996431 ei 0.001 es 0.000 et 0.001 er 0.001] ------- [25:255 -1:255 29 0] [0x2 2 1 [0 0] [13 4]] (REQUEST)
D 0.008885651 _18_ MAC  COL 0 AODV 106 [0 ffffffff 19 800] [energy 89.997279 ei 0.001 es 0.000 et 0.000 er 0.001] ------- [25:255 -1:255 29 0] [0x2 2 1 [0 0] [13 4]] (REQUEST)
D 0.008885662 _8_ MAC  COL 0 AODV 106 [0 ffffffff 19 800] [energy 89.997279 ei 0.001 es 0.000 et 0.000 er 0.001] ------- [25:255 -1:255 29 0] [0x2 2 1 [0 0] [13 4]] (REQUEST)
D 0.008885664 _40_ MAC  COL 0 AODV 106 [0 ffffffff 19 800] [energy 89.997279 ei 0.001 es 0.000 et 0.000 er 0.001] ------- [25:255 -1:255 29 0] [0x2 2 1 [0 0] [13 4]] (REQUEST)
D 0.008885721 _14_ MAC  COL 0 AODV 106 [0 ffffffff 19 800] [energy 89.997280 ei 0.001 es 0.000 et 0.000 er 0.001] ------- [25:255 -1:255 29 0] [0x2 2 1 [0 0] [13 4]] (REQUEST)
D 0.008885725 _20_ MAC  COL 0 AODV 106 [0 ffffffff 19 800] [energy 89.996431 ei 0.001 es 0.000 et 0.001 er 0.001] ------- [25:255 -1:255 29 0] [0x2 2 1 [0 0] [13 4]] (REQUEST)
D 0.008885734 _2_ MAC  COL 0 AODV 106 [0 ffffffff 19 800] [energy 89.996431 ei 0.001 es 0.000 et 0.001 er 0.001] ------- [25:255 -1:255 29 0] [0x2 2 1 [0 0] [13 4]] (REQUEST)
D 0.008885791 _19_ MAC  COL 0 AODV 106 [0 ffffffff 19 800] [energy 89.997280 ei 0.001 es 0.000 et 0.000 er 0.001] ------- [25:255 -1:255 29 0] [0x2 2 1 [0 0] [13 4]] (REQUEST)
D 0.008885798 _28_ MAC  COL 0 AODV 106 [0 ffffffff 19 800] [energy 89.997279 ei 0.001 es 0.000 et 0.000 er 0.001] ------- [25:255 -1:255 29 0] [0x2 2 1 [0 0] [13 4]] (REQUEST)
D 0.008885799 _54_ MAC  COL 0 AODV 106 [0 ffffffff 19 800] [energy 89.997280 ei 0.001 es 0.000 et 0.000 er 0.001] ------- [25:255 -1:255 29 0] [0x2 2 1 [0 0] [13 4]] (REQUEST)
D 0.008885814 _49_ MAC  COL 0 AODV 106 [0 ffffffff 19 800] [energy 89.997280 ei 0.001 es 0.000 et 0.000 er 0.001] ------- [25:255 -1:255 29 0] [0x2 2 1 [0 0] [13 4]] (REQUEST)
D 0.008885837 _55_ MAC  COL 0 AODV 106 [0 ffffffff 19 800] [energy 89.997280 ei 0.001 es 0.000 et 0.000 er 0.001] ------- [25:255 -1:255 29 0] [0x2 2 1 [0 0] [13 4]] (REQUEST)
D 0.008885857 _36_ MAC  COL 0 AODV 106 [0 ffffffff 19 800] [energy 89.997279 ei 0.001 es 0.000 et 0.000 er 0.001] ------- [25:255 -1:255 29 0] [0x2 2 1 [0 0] [13 4]] (REQUEST)
D 0.008885859 _53_ MAC  COL 0 AODV 106 [0 ffffffff 19 800] [energy 89.996079 ei 0.001 es 0.000 et 0.001 er 0.001] ------- [25:255 -1:255 29 0] [0x2 2 1 [0 0] [13 4]] (REQUEST)
D 0.012035193 _41_ MAC  COL 0 AODV 106 [0 ffffffff 12 800] [energy 89.996080 ei 0.002 es 0.000 et 0.000 er 0.002] ------- [18:255 -1:255 29 0] [0x2 2 1 [0 0] [13 4]] (REQUEST)
D 0.012035283 _13_ MAC  COL 0 AODV 106 [0 ffffffff 12 800] [energy 89.995232 ei 0.002 es 0.000 et 0.001 er 0.002] ------- [18:255 -1:255 29 0] [0x2 2 1 [0 0] [13 4]] (REQUEST)
D 0.012035291 _36_ MAC  COL 0 AODV 106 [0 ffffffff 12 800] [energy 89.996080 ei 0.002 es 0.000 et 0.000 er 0.002] ------- [18:255 -1:255 29 0] [0x2 2 1 [0 0] [13 4]] (REQUEST)
D 0.012035372 _24_ MAC  COL 0 AODV 106 [0 ffffffff 12 800] [energy 89.995232 ei 0.002 es 0.000 et 0.001 er 0.002] ------- [18:255 -1:255 29 0] [0x2 2 1 [0 0] [13 4]] (REQUEST)
D 0.012035396 _45_ MAC  COL 0 AODV 106 [0 ffffffff 12 800] [energy 89.996081 ei 0.002 es 0.000 et 0.000 er 0.002] ------- [18:255 -1:255 29 0] [0x2 2 1 [0 0] [13 4]] (REQUEST)
D 0.012035424 _52_ MAC  COL 0 AODV 106 [0 ffffffff 12 800] [energy 89.996080 ei 0.002 es 0.000 et 0.000 er 0.002] ------- [18:255 -1:255 29 0] [0x2 2 1 [0 0] [13 4]] (REQUEST)
D 0.012035484 _43_ MAC  COL 0 AODV 106 [0 ffffffff 12 800] [energy 89.996080 ei 0.002 es 0.000 et 0.000 er 0.002] ------- [18:255 -1:255 29 0] [0x2 2 1 [0 0] [13 4]] (REQUEST)
D 0.012035512 _25_ MAC  COL 0 AODV 106 [0 ffffffff 12 800] [energy 89.995232 ei 0.002 es 0.000 et 0.001 er 0.002] ------- [18:255 -1:255 29 0] [0x2 2 1 [0 0] [13 4]] (REQUEST)
D 0.012035524 _35_ MAC  COL 0 AODV 106 [0 ffffffff 12 800] [energy 89.996081 ei 0.002 es 0.000 et 0.000 er 0.002] ------- [18:255 -1:255 29 0] [0x2 2 1 [0 0] [13 4]] (REQUEST)
D 0.012035553 _0_ MAC  COL 0 AODV 106 [0 ffffffff 12 800] [energy 89.996080 ei 0.002 es 0.000 et 0.000 er 0.002] ------- [18:255 -1:255 29 0] [0x2 2 1 [0 0] [13 4]] (REQUEST)
D 0.012035555 _5_ MAC  COL 0 AODV 106 [0 ffffffff 12 800] [energy 89.995392 ei 0.002 es 0.000 et 0.001 er 0.002] ------- [18:255 -1:255 29 0] [0x2 2 1 [0 0] [13 4]] (REQUEST)
D 0.012035576 _16_ MAC  COL 0 AODV 106 [0 ffffffff 12 800] [energy 89.996080 ei 0.002 es 0.000 et 0.000 er 0.002] ------- [18:255 -1:255 29 0] [0x2 2 1 [0 0] [13 4]] (REQUEST)
D 0.012035578 _53_ MAC  COL 0 AODV 106 [0 ffffffff 12 800] [energy 89.994880 ei 0.002 es 0.000 et 0.001 er 0.002] ------- [18:255 -1:255 29 0] [0x2 2 1 [0 0] [13 4]] (REQUEST)