D 0.003808903 _13_ MAC  COL 0 AODV 106 [0 ffffffff 2b 800] [energy 89.996446 ei 0.001 es 0.000 et 0.002 er 0.000] ------- [43:255 -1:255 29 0] [0x2 2 1 [0 0] [13 4]] (REQUEST)
D 0.003808919 _10_ MAC  COL 0 AODV 106 [0 ffffffff e 800] [energy 89.998142 ei 0.001 es 0.000 et 0.000 er 0.001] ------- [14:255 -1:255 29 0] [0x2 2 1 [0 0] [13 4]] (REQUEST)
D 0.003809056 _53_ MAC  COL 0 AODV 106 [0 ffffffff e 800] [energy 89.998142 ei 0.001 es 0.000 et 0.000 er 0.001] ------- [14:255 -1:255 29 0] [0x2 2 1 [0 0] [13 4]] (REQUEST)
D 0.003809079 _37_ MAC  COL 0 AODV 106 [0 ffffffff e 800] [energy 89.998141 ei 0.001 es 0.000 et 0.000 er 0.001] ------- [14:255 -1:255 29 0] [0x2 2 1 [0 0] [13 4]] (REQUEST)
D 0.003809132 _11_ MAC  COL 0 AODV 106 [0 ffffffff 2b 800] [energy 89.998141 ei 0.001 es 0.000 et 0.000 er 0.001] ------- [43:255 -1:255 29 0] [0x2 2 1 [0 0] [13 4]] (REQUEST)
D 0.003809132 _18_ MAC  COL 0 AODV 106 [0 ffffffff 2b 800] [energy 89.998141 ei 0.001 es 0.000 et 0.000 er 0.001] ------- [43:255 -1:255 29 0] [0x2 2 1 [0 0] [13 4]] (REQUEST)
D 0.003809144 _28_ MAC  COL 0 AODV 106 [0 ffffffff 2b 800] [energy 89.998141 ei 0.001 es 0.000 et 0.000 er 0.001] ------- [43:255 -1:255 29 0] [0x2 2 1 [0 0] [13 4]] (REQUEST)
D 0.003809195 _25_ MAC  COL 0 AODV 106 [0 ffffffff 2b 800] [energy 89.998141 ei 0.001 es 0.000 et 0.000 er 0.001] ------- [43:255 -1:255 29 0] [0x2 2 1 [0 0] [13 4]] (REQUEST)
D 0.003809239 _48_ MAC  COL 0 AODV 106 [0 ffffffff e 800] [energy 89.998141 ei 0.001 es 0.000 et 0.000 er 0.001] ------- [14:255 -1:255 29 0] [0x2 2 1 [0 0] [13 4]] (REQUEST)
D 0.003809246 _51_ MAC  COL 0 AODV 106 [0 ffffffff e 800] [energy 89.998141 ei 0.001 es 0.000 et 0.000 er 0.001] ------- [14:255 -1:255 29 0] [0x2 2 1 [0 0] [13 4]] (REQUEST)
D 0.003809270 _2_ MAC  COL 0 AODV 106 [0 ffffffff e 800] [energy 89.998141 ei 0.001 es 0.000 et 0.000 er 0.001] ------- [14:255 -1:255 29 0] [0x2 2 1 [0 0] [13 4]] (REQUEST)
D 0.003809313 _34_ MAC  COL 0 AODV 106 [0 ffffffff e 800] [energy 89.998141 ei 0.001 es 0.000 et 0.000 er 0.001] ------- [14:255 -1:255 29 0] [0x2 2 1 [0 0] [13 4]] (REQUEST)
D 0.003809328 _35_ MAC  COL 0 AODV 106 [0 ffffffff e 800] [energy 89.998141 ei 0.001 es 0.000 et 0.000 er 0.001] ------- [14:255 -1:255 29 0] [0x2 2 1 [0 0] [13 4]] (REQUEST)
D 0.003809383 _31_ MAC  COL 0 AODV 106 [0 ffffffff e 800] [energy 89.998141 ei 0.001 es 0.000 et 0.000 er 0.001] ------- [14:255 -1:255 29 0] [0x2 2 1 [0 0] [13 4]] (REQUEST)
D 0.003809545 _38_ MAC  COL 0 AODV 106 [0 ffffffff 2b 800] [energy 89.998141 ei 0.001 es 0.000 et 0.000 er 0.001] ------- [43:255 -1:255 29 0] [0x2 2 1 [0 0] [13 4]] (REQUEST)
D 0.004656903 _13_ MAC  COL 0 AODV 106 [0 ffffffff e 800] [energy 89.996446 ei 0.001 es 0.000 et 0.002 er 0.000] ------- [14:255 -1:255 29 0] [0x2 2 1 [0 0] [13 4]] (REQUEST)
D 0.004656919 _10_ MAC  COL 0 AODV 106 [0 ffffffff 2b 800] [energy 89.998142 ei 0.001 es 0.000 et 0.000 er 0.001] ------- [43:255 -1:255 29 0] [0x2 2 1 [0 0] [13 4]] (REQUEST)
D 0.004657056 _53_ MAC  COL 0 AODV 106 [0 ffffffff 2b 800] [energy 89.998142 ei 0.001 es 0.000 et 0.000 er 0.001] ------- [43:255 -1:255 29 0] [0x2 2 1 [0 0] [13 4]] (REQUEST)
D 0.004657079 _37_ MAC  COL 0 AODV 106 [0 ffffffff 2b 800] [energy 89.998141 ei 0.001 es 0.000 et 0.000 er 0.001] ------- [43:255 -1:255 29 0] [0x2 2 1 [0 0] [13 4]] (REQUEST)
D 0.004657132 _11_ MAC  COL 0 AODV 106 [0 ffffffff e 800] [energy 89.998141 ei 0.001 es 0.000 et 0.000 er 0.001] ------- [14:255 -1:255 29 0] [0x2 2 1 [0 0] [13 4]] (REQUEST)
D 0.004657132 _18_ MAC  COL 0 AODV 106 [0 ffffffff e 800] [energy 89.998141 ei 0.001 es 0.000 et 0.000 er 0.001] ------- [14:255 -1:255 29 0] [0x2 2 1 [0 0] [13 4]] (REQUEST)
D 0.004657144 _28_ MAC  COL 0 AODV 106 [0 ffffffff e 800] [energy 89.998141 ei 0.001 es 0.000 et 0.000 er 0.001] ------- [14:255 -1:255 29 0] [0x2 2 1 [0 0] [13 4]] (REQUEST)
D 0.004657195 _25_ MAC  COL 0 AODV 106 [0 ffffffff e 800] [energy 89.998141 ei 0.001 es 0.000 et 0.000 er 0.001] ------- [14:255 -1:255 29 0] [0x2 2 1 [0 0] [13 4]] (REQUEST)
D 0.004657239 _48_ MAC  COL 0 AODV 106 [0 ffffffff 2b 800] [energy 89.998141 ei 0.001 es 0.000 et 0.000 er 0.001] ------- [43:255 -1:255 29 0] [0x2 2 1 [0 0] [13 4]] (REQUEST)
D 0.004657246 _51_ MAC  COL 0 AODV 106 [0 ffffffff 2b 800] [energy 89.998141 ei 0.001 es 0.000 et 0.000 er 0.001] ------- [43:255 -1:255 29 0] [0x2 2 1 [0 0] [13 4]] (REQUEST)
D 0.004657270 _2_ MAC  COL 0 AODV 106 [0 ffffffff 2b 800] [energy 89.998141 ei 0.001 es 0.000 et 0.000 er 0.001] ------- [43:255 -1:255 29 0] [0x2 2 1 [0 0] [13 4]] (REQUEST)
D 0.009744202 _19_ MAC  COL 0 AODV 106 [0 ffffffff 24 800] [energy 89.996404 ei 0.002 es 0.000 et 0.000 er 0.001] ------- [36:255 -1:255 29 0] [0x2 2 4 [3 0] [13 10]] (REQUEST)
D 0.009744213 _13_ MAC  COL 0 AODV 106 [0 ffffffff c 800] [energy 89.994708 ei 0.002 es 0.000 et 0.002 er 0.001] ------- [12:255 -1:255 29 0] [0x2 2 4 [3 0] [13 10]] (REQUEST)
D 0.009744238 _18_ MAC  COL 0 AODV 106 [0 ffffffff 24 800] [energy 89.996404 ei 0.002 es 0.000 et 0.000 er 0.001] ------- [36:255 -1:255 29 0] [0x2 2 4 [3 0] [13 10]] (REQUEST)
D 0.009744241 _25_ MAC  COL 0 AODV 106 [0 ffffffff 24 800] [energy 89.994708 ei 0.002 es 0.000 et 0.002 er 0.001] ------- [36:255 -1:255 29 0] [0x2 2 4 [3 0] [13 10]] (REQUEST)
D 0.009744269 _1_ MAC  COL 0 AODV 106 [0 ffffffff 24 800] [energy 89.995556 ei 0.002 es 0.000 et 0.001 er 0.001] ------- [36:255 -1:255 29 0] [0x2 2 4 [3 0] [13 10]] (REQUEST)
D 0.009744299 _28_ MAC  COL 0 AODV 106 [0 ffffffff 24 800] [energy 89.996404 ei 0.002 es 0.000 et 0.000 er 0.001] ------- [36:255 -1:255 29 0] [0x2 2 4 [3 0] [13 10]] (REQUEST)
D 0.009744312 _53_ MAC  COL 0 AODV 106 [0 ffffffff c 800] [energy 89.996404 ei 0.002 es 0.000 et 0.000 er 0.001] ------- [12:255 -1:255 29 0] [0x2 2 4 [3 0] [13 10]] (REQUEST)
D 0.009744367 _11_ MAC  COL 0 AODV 106 [0 ffffffff c 800] [energy 89.996404 ei 0.002 es 0.000 et 0.000 er 0.001] ------- [12:255 -1:255 29 0] [0x2 2 4 [3 0] [13 10]] (REQUEST)
D 0.009744413 _37_ MAC  COL 0 AODV 106 [0 ffffffff c 800] [energy 89.996404 ei 0.002 es 0.000 et 0.000 er 0.001] ------- [12:255 -1:255 29 0] [0x2 2 4 [3 0] [13 10]] (REQUEST)
D 0.009744469 _48_ MAC  COL 0 AODV 106 [0 ffffffff c 800] [energy 89.996404 ei 0.002 es 0.000 et 0.000 er 0.001] ------- [12:255 -1:255 29 0] [0x2 2 4 [3 0] [13 10]] (REQUEST)
D 0.009744535 _35_ MAC  COL 0 AODV 106 [0 ffffffff 24 800] [energy 89.996404 ei 0.002 es 0.000 et 0.000 er 0.001] ------- [36:255 -1:255 29 0] [0x2 2 4 [3 0] [13 10]] (REQUEST)
D 0.009744597 _21_ MAC  COL 0 AODV 106 [0 ffffffff 24 800] [energy 89.996404 ei 0.002 es 0.000 et 0.000 er 0.001] ------- [36:255 -1:255 29 0] [0x2 2 4 [3 0] [13 10]] (REQUEST)
D 0.009744637 _23_ MAC  COL 0 AODV 106 [0 ffffffff c 800] [energy 89.996404 ei 0.002 es 0.000 et 0.000 er 0.001] ------- [12:255 -1:255 29 0] [0x2 2 4 [3 0] [13 10]] (REQUEST)
D 0.009744721 _31_ MAC  COL 0 AODV 106 [0 ffffffff c 800] [energy 89.996404 ei 0.002 es 0.000 et 0.000 er 0.001] ------- [12:255 -1:255 29 0] [0x2 2 4 [3 0] [13 10]] (REQUEST)
D 0.009744781 _38_ MAC  COL 0 AODV 106 [0 ffffffff 24 800] [energy 89.996404 ei 0.002 es 0.000 et 0.000 er 0.001] ------- [36:255 -1:255 29 0] [0x2 2 4 [3 0] [13 10]] (REQUEST)
D 0.009744943 _3_ MAC  COL 0 AODV 106 [0 ffffffff c 800] [energy 89.996404 ei 0.002 es 0.000 et 0.000 er 0.001] ------- [12:255 -1:255 29 0] [0x2 2 4 [3 0] [13 10]] (REQUEST)
D 0.009744971 _33_ MAC  COL 0 AODV 106 [0 ffffffff c 800] [energy 89.996404 ei 0.002 es 0.000 et 0.000 er 0.001] ------- [12:255 -1:255 29 0] [0x2 2 4 [3 0] [13 10]] (REQUEST)
D 0.009744972 _46_ MAC  COL 0 AODV 106 [0 ffffffff c 800] [energy 89.996404 ei 0.002 es 0.000 et 0.000 er 0.001] ------- [12:255 -1:255 29 0] [0x2 2 4 [3 0] [13 10]] (REQUEST)
D 0.010592202 _19_ MAC  COL 0 AODV 106 [0 ffffffff c 800] [energy 89.996404 ei 0.002 es 0.000 et 0.000 er 0.001] ------- [12:255 -1:255 29 0] [0x2 2 4 [3 0] [13 10]] (REQUEST)
D 0.010592213 _13_ MAC  COL 0 AODV 106 [0 ffffffff 24 800] [energy 89.994708 ei 0.002 es 0.000 et 0.002 er 0.001] ------- [36:255 -1:255 29 0] [0x2 2 4 [3 0] [13 10]] (REQUEST)
D 0.010592238 _18_ MAC  COL 0 AODV 106 [0 ffffffff c 800] [energy 89.996404 ei 0.002 es 0.000 et 0.000 er 0.001] ------- [12:255 -1:255 29 0] [0x2 2 4 [3 0] [13 10]] (REQUEST)
D 0.010592241 _25_ MAC  COL 0 AODV 106 [0 ffffffff c 800] [energy 89.994708 ei 0.002 es 0.000 et 0.002 er 0.001] ------- [12:255 -1:255 29 0] [0x2 2 4 [3 0] [13 10]] (REQUEST)
D 0.010592269 _1_ MAC  COL 0 AODV 106 [0 ffffffff c 800] [energy 89.995556 ei 0.002 es 0.000 et 0.001 er 0.001] ------- [12:255 -1:255 29 0] [0x2 2 4 [3 0] [13 10]] (REQUEST)
D 0.010592299 _28_ MAC  COL 0 AODV 106 [0 ffffffff c 800] [energy 89.996404 ei 0.002 es 0.000 et 0.000 er 0.001] ------- [12:255 -1:255 29 0] [0x2 2 4 [3 0] [13 10]] (REQUEST)
D 0.010592312 _53_ MAC  COL 0 AODV 106 [0 ffffffff 24 800] [energy 89.996404 ei 0.002 es 0.000 et 0.000 er 0.001] ------- [36:255 -1:255 29 0] [0x2 2 4 [3 0] [13 10]] (REQUEST)
D 0.010592367 _11_ MAC  COL 0 AODV 106 [0 ffffffff 24 800] [energy 89.996404 ei 0.002 es 0.000 et 0.000 er 0.001] ------- [36:255 -1:255 29 0] [0x2 2 4 [3 0] [13 10]] (REQUEST)
D 0.010592413 _37_ MAC  COL 0 AODV 106 [0 ffffffff 24 800] [energy 89.996404 ei 0.002 es 0.000 et 0.000 er 0.001] ------- [36:255 -1:255 29 0] [0x2 2 4 [3 0] [13 10]] (REQUEST)
D 0.010592469 _48_ MAC  COL 0 AODV 106 [0 ffffffff 24 800] [energy 89.996404 ei 0.002 es 0.000 et 0.000 er 0.001] ------- [36:255 -1:255 29 0] [0x2 2 4 [3 0] [13 10]] (REQUEST)
D 0.012843704 _17_ MAC  COL 0 AODV 106 [0 ffffffff 9 800] [energy 89.995404 ei 0.003 es 0.000 et 0.000 er 0.002] ------- [9:255 -1:255 29 0] [0x2 2 1 [0 0] [13 4]] (REQUEST)
D 0.012843755 _8_ MAC  COL 0 AODV 106 [0 ffffffff 9 800] [energy 89.994556 ei 0.003 es 0.000 et 0.001 er 0.002] ------- [9:255 -1:255 29 0] [0x2 2 1 [0 0] [13 4]] (REQUEST)
D 0.012843802 _22_ MAC  COL 0 AODV 106 [0 ffffffff 2 800] [energy 89.995404 ei 0.003 es 0.000 et 0.000 er 0.002] ------- [2:255 -1:255 29 0] [0x2 2 1 [0 0] [13 4]] (REQUEST)
D 0.012843823 _47_ MAC  COL 0 AODV 106 [0 ffffffff 9 800] [energy 89.995404 ei 0.003 es 0.000 et 0.000 er 0.002] ------- [9:255 -1:255 29 0] [0x2 2 1 [0 0] [13 4]] (REQUEST)
D 0.012843832 _0_ MAC  COL 0 AODV 106 [0 ffffffff 9 800] [energy 89.995404 ei 0.003 es 0.000 et 0.000 er 0.002] ------- [9:255 -1:255 29 0] [0x2 2 1 [0 0] [13 4]] (REQUEST)
D 0.012843878 _3_ MAC  COL 0 AODV 106 [0 ffffffff 9 800] [energy 89.995404 ei 0.003 es 0.000 et 0.000 er 0.002] ------- [9:255 -1:255 29 0] [0x2 2 1 [0 0] [13 4]] (REQUEST)
D 0.012843910 _46_ MAC  COL 0 AODV 106 [0 ffffffff 9 800] [energy 89.995404 ei 0.003 es 0.000 et 0.000 er 0.002] ------- [9:255 -1:255 29 0] [0x2 2 1 [0 0] [13 4]] (REQUEST)
D 0.012843943 _33_ MAC  COL 0 AODV 106 [0 ffffffff 9 800] [energy 89.995404 ei 0.003 es 0.000 et 0.000 er 0.002] ------- [9:255 -1:255 29 0] [0x2 2 1 [0 0] [13 4]] (REQUEST)
D 0.012843976 _33_ MAC  COL 0 AODV 106 [0 ffffffff 2 800] [energy 89.995404 ei 0.003 es 0.000 et 0.000 er 0.002] ------- [2:255 -1:255 29 0] [0x2 2 1 [0 0] [13 4]] (REQUEST)
D 0.012843979 _46_ MAC  COL 0 AODV 106 [0 ffffffff 1b 800] [energy 89.995404 ei 0.003 es 0.000 et 0.000 er 0.002] ------- [27:255 -1:255 28 0] [0x2 3 4 [3 0] [13 10]] (REQUEST)
D 0.012843991 _6_ MAC  COL 0 AODV 106 [0 ffffffff 2 800] [energy 89.995404 ei 0.003 es 0.000 et 0.000 er 0.002] ------- [2:255 -1:255 29 0] [0x2 2 1 [0 0] [13 4]] (REQUEST)
D 0.012843995 _3_ MAC  COL 0 AODV 106 [0 ffffffff 2 800] [energy 89.995404 ei 0.003 es 0.000 et 0.000 er 0.002] ------- [2:255 -1:255 29 0] [0x2 2 1 [0 0] [13 4]] (REQUEST)
D 0.012844110 _22_ MAC  COL 0 AODV 106 [0 ffffffff 9 800] [energy 89.995404 ei 0.003 es 0.000 et 0.000 er 0.002] ------- [9:255 -1:255 29 0] [0x2 2 1 [0 0] [13 4]] (REQUEST)
D 0.012844136 _0_ MAC  COL 0 AODV 106 [0 ffffffff 2 800] [energy 89.995404 ei 0.003 es 0.000 et 0.000 er 0.002] ------- [2:255 -1:255 29 0] [0x2 2 1 [0 0] [13 4]] (REQUEST)
D 0.012844195 _8_ MAC  COL 0 AODV 106 [0 ffffffff 2 800] [energy 89.994556 ei 0.003 es 0.000 et 0.001 er 0.002] ------- [2:255 -1:255 29 0] [0x2 2 1 [0 0] [13 4]] (REQUEST)
D 0.012844220 _23_ MAC  COL 0 AODV 106 [0 ffffffff 2 800] [energy 89.995403 ei 0.003 es 0.000 et 0.000 er 0.002] ------- [2:255 -1:255 29 0] [0x2 2 1 [0 0] [13 4]] (REQUEST)
D 0.012844243 _21_ MAC  COL 0 AODV 106 [0 ffffffff 2 800] [energy 89.995403 ei 0.003 es 0.000 et 0.000 er 0.002] ------- [2:255 -1:255 29 0] [0x2 2 1 [0 0] [13 4]] (REQUEST)
D 0.012844253 _35_ MAC  COL 0 AODV 106 [0 ffffffff 2 800] [energy 89.995403 ei 0.003 es 0.000 et 0.000 er 0.002] ------- [2:255 -1:255 29 0] [0x2 2 1 [0 0] [13 4]] (REQUEST)
D 0.012844273 _40_ MAC  COL 0 AODV 106 [0 ffffffff 2 800] [energy 89.994556 ei 0.003 es 0.000 et 0.001 er 0.002] ------- [2:255 -1:255 29 0] [0x2 2 1 [0 0] [13 4]] (REQUEST)
D 0.012844277 _45_ MAC  COL 0 AODV 106 [0 ffffffff 2 800] [energy 89.995403 ei 0.003 es 0.000 et 0.000 er 0.002] ------- [2:255 -1:255 29 0] [0x2 2 1 [0 0] [13 4]] (REQUEST)
D 0.012844356 _51_ MAC  COL 0 AODV 106 [0 ffffffff 2 800] [energy 89.995403 ei 0.003 es 0.000 et 0.000 er 0.002] ------- [2:255 -1:255 29 0] [0x2 2 1 [0 0] [13 4]] (REQUEST)
D 0.012844409 _45_ MAC  COL 0 AODV 106 [0 ffffffff 1b 800] [energy 89.995403 ei 0.003 es 0.000 et 0.000 er 0.002] ------- [27:255 -1:255 28 0] [0x2 3 4 [3 0] [13 10]] (REQUEST)
D 0.012844430 _34_ MAC  COL 0 AODV 106 [0 ffffffff 2 800] [energy 89.995403 ei 0.003 es 0.000 et 0.000 er 0.002] ------- [2:255 -1:255 29 0] [0x2 2 1 [0 0] [13 4]] (REQUEST)
D 0.012844497 _31_ MAC  COL 0 AODV 106 [0 ffffffff 2 800] [energy 89.995403 ei 0.003 es 0.000 et 0.000 er 0.002] ------- [2:255 -1:255 29 0] [0x2 2 1 [0 0] [13 4]] (REQUEST)
D 0.012844783 _6_ MAC  COL 0 AODV 106 [0 ffffffff 9 800] [energy 89.995404 ei 0.003 es 0.000 et 0.000 er 0.002] ------- [9:255 -1:255 29 0] [0x2 2 1 [0 0] [13 4]] (REQUEST)
D 0.013691704 _17_ MAC  COL 0 AODV 106 [0 ffffffff 2 800] [energy 89.995404 ei 0.003 es 0.000 et 0.000 er 0.002] ------- [2:255 -1:255 29 0] [0x2 2 1 [0 0] [13 4]] (REQUEST)
D 0.013691823 _47_ MAC  COL 0 AODV 106 [0 ffffffff 2 800] [energy 89.995404 ei 0.003 es 0.000 et 0.000 er 0.002] ------- [2:255 -1:255 29 0] [0x2 2 1 [0 0] [13 4]] (REQUEST)
D 0.013691976 _33_ MAC  COL 0 AODV 106 [0 ffffffff 1b 800] [energy 89.995404 ei 0.003 es 0.000 et 0.000 er 0.002] ------- [27:255 -1:255 28 0] [0x2 3 4 [3 0] [13 10]] (REQUEST)
D 0.013691979 _46_ MAC  COL 0 AODV 106 [0 ffffffff 2 800] [energy 89.995404 ei 0.003 es 0.000 et 0.000 er 0.002] ------- [2:255 -1:255 29 0] [0x2 2 1 [0 0] [13 4]] (REQUEST)
D 0.013691995 _3_ MAC  COL 0 AODV 106 [0 ffffffff 1b 800] [energy 89.995404 ei 0.003 es 0.000 et 0.000 er 0.002] ------- [27:255 -1:255 28 0] [0x2 3 4 [3 0] [13 10]] (REQUEST)
D 0.013692110 _22_ MAC  COL 0 AODV 106 [0 ffffffff 1b 800] [energy 89.995404 ei 0.003 es 0.000 et 0.000 er 0.002] ------- [27:255 -1:255 28 0] [0x2 3 4 [3 0] [13 10]] (REQUEST)
D 0.013692136 _0_ MAC  COL 0 AODV 106 [0 ffffffff 1b 800] [energy 89.995404 ei 0.003 es 0.000 et 0.000 er 0.002] ------- [27:255 -1:255 28 0] [0x2 3 4 [3 0] [13 10]] (REQUEST)
D 0.013692195 _8_ MAC  COL 0 AODV 106 [0 ffffffff 1b 800] [energy 89.994556 ei 0.003 es 0.000 et 0.001 er 0.002] ------- [27:255 -1:255 28 0] [0x2 3 4 [3 0] [13 10]] (REQUEST)
D 0.013692220 _23_ MAC  COL 0 AODV 106 [0 ffffffff 1b 800] [energy 89.995403 ei 0.003 es 0.000 et 0.000 er 0.002] ------- [27:255 -1:255 28 0] [0x2 3 4 [3 0] [13 10]] (REQUEST)
D 0.013692295 _35_ MAC  COL 0 AODV 106 [0 ffffffff 1b 800] [energy 89.995403 ei 0.003 es 0.000 et 0.000 er 0.002] ------- [27:255 -1:255 28 0] [0x2 3 4 [3 0] [13 10]] (REQUEST)
D 0.013692323 _21_ MAC  COL 0 AODV 106 [0 ffffffff 1b 800] [energy 89.995403 ei 0.003 es 0.000 et 0.000 er 0.002] ------- [27:255 -1:255 28 0] [0x2 3 4 [3 0] [13 10]] (REQUEST)
D 0.014126664 _35_ MAC  COL 0 AODV 106 [0 ffffffff 30 800] [energy 89.994820 ei 0.003 es 0.000 et 0.000 er 0.002] ------- [48:255 -1:255 29 0] [0x2 2 1 [0 0] [13 4]] (REQUEST)
D 0.014126752 _21_ MAC  COL 0 AODV 106 [0 ffffffff 30 800] [energy 89.994820 ei 0.003 es 0.000 et 0.000 er 0.002] ------- [48:255 -1:255 29 0] [0x2 2 1 [0 0] [13 4]] (REQUEST)
D 0.014126934 _7_ MAC  COL 0 AODV 106 [0 ffffffff 30 800] [energy 89.994820 ei 0.003 es 0.000 et 0.000 er 0.002] ------- [48:255 -1:255 29 0] [0x2 2 1 [0 0] [13 4]] (REQUEST)
D 0.014126965 _38_ MAC  COL 0 AODV 106 [0 ffffffff 2d 800] [energy 89.994821 ei 0.003 es 0.000 et 0.000 er 0.002] ------- [45:255 -1:255 29 0] [0x2 2 1 [0 0] [13 4]] (REQUEST)
D 0.014126984 _3_ MAC  COL 0 AODV 106 [0 ffffffff 30 800] [energy 89.994821 ei 0.003 es 0.000 et 0.000 er 0.002] ------- [48:255 -1:255 29 0] [0x2 2 1 [0 0] [13 4]] (REQUEST)
D 0.014127097 _46_ MAC  COL 0 AODV 106 [0 ffffffff 30 800] [energy 89.994821 ei 0.003 es 0.000 et 0.000 er 0.002] ------- [48:255 -1:255 29 0] [0x2 2 1 [0 0] [13 4]] (REQUEST)
D 0.014127108 _27_ MAC  COL 0 AODV 106 [0 ffffffff 2d 800] [energy 89.993973 ei 0.003 es 0.000 et 0.001 er 0.002] ------- [45:255 -1:255 29 0] [0x2 2 1 [0 0] [13 4]] (REQUEST)
D 0.014127143 _19_ MAC  COL 0 AODV 106 [0 ffffffff 30 800] [energy 89.994821 ei 0.003 es 0.000 et 0.000 er 0.002] ------- [48:255 -1:255 29 0] [0x2 2 1 [0 0] [13 4]] (REQUEST)
D 0.014127158 _13_ MAC  COL 0 AODV 106 [0 ffffffff 30 800] [energy 89.993124 ei 0.003 es 0.000 et 0.002 er 0.002] ------- [48:255 -1:255 29 0] [0x2 2 1 [0 0] [13 4]] (REQUEST)
D 0.014127159 _33_ MAC  COL 0 AODV 106 [0 ffffffff 30 800] [energy 89.994821 ei 0.003 es 0.000 et 0.000 er 0.002] ------- [48:255 -1:255 29 0] [0x2 2 1 [0 0] [13 4]] (REQUEST)
D 0.014127167 _40_ MAC  COL 0 AODV 106 [0 ffffffff 30 800] [energy 89.993973 ei 0.003 es 0.000 et 0.001 er 0.002] ------- [48:255 -1:255 29 0] [0x2 2 1 [0 0] [13 4]] (REQUEST)
D 0.014127180 _25_ MAC  COL 0 AODV 106 [0 ffffffff 30 800] [energy 89.993124 ei 0.003 es 0.000 et 0.002 er 0.002] ------- [48:255 -1:255 29 0] [0x2 2 1 [0 0] [13 4]] (REQUEST)
D 0.014127210 _10_ MAC  COL 0 AODV 106 [0 ffffffff 30 800] [energy 89.994821 ei 0.003 es 0.000 et 0.000 er 0.002] ------- [48:255 -1:255 29 0] [0x2 2 1 [0 0] [13 4]] (REQUEST)
D 0.014127264 _5_ MAC  COL 0 AODV 106 [0 ffffffff 30 800] [energy 89.994821 ei 0.003 es 0.000 et 0.000 er 0.002] ------- [48:255 -1:255 29 0] [0x2 2 1 [0 0] [13 4]] (REQUEST)
D 0.014127287 _51_ MAC  COL 0 AODV 106 [0 ffffffff b 800] [energy 89.994821 ei 0.003 es 0.000 et 0.000 er 0.002] ------- [11:255 -1:255 29 0] [0x2 2 4 [3 0] [13 10]] (REQUEST)
D 0.014127304 _39_ MAC  COL 0 AODV 106 [0 ffffffff 30 800] [energy 89.993974 ei 0.003 es 0.000 et 0.001 er 0.002] ------- [48:255 -1:255 29 0] [0x2 2 1 [0 0] [13 4]] (REQUEST)
D 0.014127310 _28_ MAC  COL 0 AODV 106 [0 ffffffff 30 800] [energy 89.994820 ei 0.003 es 0.000 et 0.000 er 0.002] ------- [48:255 -1:255 29 0] [0x2 2 1 [0 0] [13 4]] (REQUEST)
D 0.014127345 _1_ MAC  COL 0 AODV 106 [0 ffffffff 30 800] [energy 89.993973 ei 0.003 es 0.000 et 0.001 er 0.002] ------- [48:255 -1:255 29 0] [0x2 2 1 [0 0] [13 4]] (REQUEST)
D 0.014127347 _6_ MAC  COL 0 AODV 106 [0 ffffffff 30 800] [energy 89.994821 ei 0.003 es 0.000 et 0.000 er 0.002] ------- [48:255 -1:255 29 0] [0x2 2 1 [0 0] [13 4]] (REQUEST)
D 0.014127350 _40_ MAC  COL 0 AODV 106 [0 ffffffff b 800] [energy 89.993973 ei 0.003 es 0.000 et 0.001 er 0.002] ------- [11:255 -1:255 29 0] [0x2 2 4 [3 0] [13 10]] (REQUEST)
D 0.014127352 _53_ MAC  COL 0 AODV 106 [0 ffffffff 30 800] [energy 89.994821 ei 0.003 es 0.000 et 0.000 er 0.002] ------- [48:255 -1:255 29 0] [0x2 2 1 [0 0] [13 4]] (REQUEST)
D 0.014127358 _16_ MAC  COL 0 AODV 106 [0 ffffffff 30 800] [energy 89.994821 ei 0.003 es 0.000 et 0.000 er 0.002] ------- [48:255 -1:255 29 0] [0x2 2 1 [0 0] [13 4]] (REQUEST)
D 0.014127368 _2_ MAC  COL 0 AODV 106 [0 ffffffff 30 800] [energy 89.993973 ei 0.003 es 0.000 et 0.001 er 0.002] ------- [48:255 -1:255 29 0] [0x2 2 1 [0 0] [13 4]] (REQUEST)
D 0.014127374 _12_ MAC  COL 0 AODV 106 [0 ffffffff 30 800] [energy 89.993125 ei 0.003 es 0.000 et 0.002 er 0.002] ------- [48:255 -1:255 29 0] [0x2 2 1 [0 0] [13 4]] (REQUEST)
D 0.014127380 _49_ MAC  COL 0 AODV 106 [0 ffffffff 30 800] [energy 89.994822 ei 0.003 es 0.000 et 0.000 er 0.002] ------- [48:255 -1:255 29 0] [0x2 2 1 [0 0] [13 4]] (REQUEST)
D 0.014127416 _37_ MAC  COL 0 AODV 106 [0 ffffffff b 800] [energy 89.994820 ei 0.003 es 0.000 et 0.000 er 0.002] ------- [11:255 -1:255 29 0] [0x2 2 4 [3 0] [13 10]] (REQUEST)
D 0.014127416 _36_ MAC  COL 0 AODV 106 [0 ffffffff 30 800] [energy 89.993973 ei 0.003 es 0.000 et 0.001 er 0.002] ------- [48:255 -1:255 29 0] [0x2 2 1 [0 0] [13 4]] (REQUEST)
D 0.014127422 _20_ MAC  COL 0 AODV 106 [0 ffffffff 30 800] [energy 89.993973 ei 0.003 es 0.000 et 0.001 er 0.002] ------- [48:255 -1:255 29 0] [0x2 2 1 [0 0] [13 4]] (REQUEST)
D 0.014127422 _41_ MAC  COL 0 AODV 106 [0 ffffffff 30 800] [energy 89.994821 ei 0.003 es 0.000 et 0.000 er 0.002] ------- [48:255 -1:255 29 0] [0x2 2 1 [0 0] [13 4]] (REQUEST)
D 0.014127446 _29_ MAC  COL 0 AODV 106 [0 ffffffff 30 800] [energy 89.994822 ei 0.003 es 0.000 et 0.000 er 0.002] ------- [48:255 -1:255 29 0] [0x2 2 1 [0 0] [13 4]] (REQUEST)
D 0.014127460 _47_ MAC  COL 0 AODV 106 [0 ffffffff 30 800] [energy 89.994821 ei 0.003 es 0.000 et 0.000 er 0.002] ------- [48:255 -1:255 29 0] [0x2 2 1 [0 0] [13 4]] (REQUEST)
D 0.014127481 _43_ MAC  COL 0 AODV 106 [0 ffffffff 30 800] [energy 89.993973 ei 0.003 es 0.000 et 0.001 er 0.002] ------- [48:255 -1:255 29 0] [0x2 2 1 [0 0] [13 4]] (REQUEST)
D 0.014127484 _50_ MAC  COL 0 AODV 106 [0 ffffffff 30 800] [energy 89.994821 ei 0.003 es 0.000 et 0.000 er 0.002] ------- [48:255 -1:255 29 0] [0x2 2 1 [0 0] [13 4]] (REQUEST)
D 0.014127509 _24_ MAC  COL 0 AODV 106 [0 ffffffff 30 800] [energy 89.994821 ei 0.003 es 0.000 et 0.000 er 0.002] ------- [48:255 -1:255 29 0] [0x2 2 1 [0 0] [13 4]] (REQUEST)
D 0.014127532 _15_ MAC  COL 0 AODV 106 [0 ffffffff 30 800] [energy 89.994821 ei 0.003 es 0.000 et 0.000 er 0.002] ------- [48:255 -1:255 29 0] [0x2 2 1 [0 0] [13 4]] (REQUEST)
D 0.014127556 _9_ MAC  COL 0 AODV 106 [0 ffffffff 30 800] [energy 89.993973 ei 0.003 es 0.000 et 0.001 er 0.002] ------- [48:255 -1:255 29 0] [0x2 2 1 [0 0] [13 4]] (REQUEST)
D 0.014127557 _4_ MAC  COL 0 AODV 106 [0 ffffffff 30 800] [energy 89.994821 ei 0.003 es 0.000 et 0.000 er 0.002] ------- [48:255 -1:255 29 0] [0x2 2 1 [0 0] [13 4]] (REQUEST)
D 0.014127574 _13_ MAC  COL 0 AODV 106 [0 ffffffff b 800] [energy 89.993124 ei 0.003 es 0.000 et 0.002 er 0.002] ------- [11:255 -1:255 29 0] [0x2 2 4 [3 0] [13 10]] (REQUEST)
D 0.014127649 _6_ MAC  COL 0 AODV 106 [0 ffffffff b 800] [energy 89.994821 ei 0.003 es 0.000 et 0.000 er 0.002] ------- [11:255 -1:255 29 0] [0x2 2 4 [3 0] [13 10]] (REQUEST)
D 0.014127650 _8_ MAC  COL 0 AODV 106 [0 ffffffff 30 800] [energy 89.993973 ei 0.003 es 0.000 et 0.001 er 0.002] ------- [48:255 -1:255 29 0] [0x2 2 1 [0 0] [13 4]] (REQUEST)
D 0.014127654 _17_ MAC  COL 0 AODV 106 [0 ffffffff 30 800] [energy 89.994821 ei 0.003 es 0.000 et 0.000 er 0.002] ------- [48:255 -1:255 29 0] [0x2 2 1 [0 0] [13 4]] (REQUEST)
D 0.014127739 _28_ MAC  COL 0 AODV 106 [0 ffffffff b 800] [energy 89.994820 ei 0.003 es 0.000 et 0.000 er 0.002] ------- [11:255 -1:255 29 0] [0x2 2 4 [3 0] [13 10]] (REQUEST)
D 0.014127800 _12_ MAC  COL 0 AODV 106 [0 ffffffff b 800] [energy 89.993125 ei 0.003 es 0.000 et 0.002 er 0.002] ------- [11:255 -1:255 29 0] [0x2 2 4 [3 0] [13 10]] (REQUEST)
D 0.014127805 _47_ MAC  COL 0 AODV 106 [0 ffffffff b 800] [energy 89.994821 ei 0.003 es 0.000 et 0.000 er 0.002] ------- [11:255 -1:255 29 0] [0x2 2 4 [3 0] [13 10]] (REQUEST)
D 0.014127820 _3_ MAC  COL 0 AODV 106 [0 ffffffff 2d 800] [energy 89.994821 ei 0.003 es 0.000 et 0.000 er 0.002] ------- [45:255 -1:255 29 0] [0x2 2 1 [0 0] [13 4]] (REQUEST)
D 0.014127834 _49_ MAC  COL 0 AODV 106 [0 ffffffff b 800] [energy 89.994822 ei 0.003 es 0.000 et 0.000 er 0.002] ------- [11:255 -1:255 29 0] [0x2 2 4 [3 0] [13 10]] (REQUEST)
D 0.014127884 _41_ MAC  COL 0 AODV 106 [0 ffffffff b 800] [energy 89.994821 ei 0.003 es 0.000 et 0.000 er 0.002] ------- [11:255 -1:255 29 0] [0x2 2 4 [3 0] [13 10]] (REQUEST)
D 0.014127902 _33_ MAC  COL 0 AODV 106 [0 ffffffff 2d 800] [energy 89.994821 ei 0.003 es 0.000 et 0.000 er 0.002] ------- [45:255 -1:255 29 0] [0x2 2 1 [0 0] [13 4]] (REQUEST)
D 0.014127911 _2_ MAC  COL 0 AODV 106 [0 ffffffff b 800] [energy 89.993973 ei 0.003 es 0.000 et 0.001 er 0.002] ------- [11:255 -1:255 29 0] [0x2 2 4 [3 0] [13 10]] (REQUEST)
D 0.014127912 _29_ MAC  COL 0 AODV 106 [0 ffffffff b 800] [energy 89.994821 ei 0.003 es 0.000 et 0.000 er 0.002] ------- [11:255 -1:255 29 0] [0x2 2 4 [3 0] [13 10]] (REQUEST)
D 0.014127946 _46_ MAC  COL 0 AODV 106 [0 ffffffff 2d 800] [energy 89.994820 ei 0.003 es 0.000 et 0.000 er 0.002] ------- [45:255 -1:255 29 0] [0x2 2 1 [0 0] [13 4]] (REQUEST)
D 0.014127983 _38_ MAC  COL 0 AODV 106 [0 ffffffff 30 800] [energy 89.994820 ei 0.003 es 0.000 et 0.000 er 0.002] ------- [48:255 -1:255 29 0] [0x2 2 1 [0 0] [13 4]] (REQUEST)
D 0.014128010 _50_ MAC  COL 0 AODV 106 [0 ffffffff b 800] [energy 89.994821 ei 0.003 es 0.000 et 0.000 er 0.002] ------- [11:255 -1:255 29 0] [0x2 2 4 [3 0] [13 10]] (REQUEST)
D 0.014128044 _43_ MAC  COL 0 AODV 106 [0 ffffffff b 800] [energy 89.993973 ei 0.003 es 0.000 et 0.001 er 0.002] ------- [11:255 -1:255 29 0] [0x2 2 4 [3 0] [13 10]] (REQUEST)
D 0.014128089 _5_ MAC  COL 0 AODV 106 [0 ffffffff b 800] [energy 89.994821 ei 0.003 es 0.000 et 0.000 er 0.002] ------- [11:255 -1:255 29 0] [0x2 2 4 [3 0] [13 10]] (REQUEST)
D 0.014128119 _17_ MAC  COL 0 AODV 106 [0 ffffffff b 800] [energy 89.994821 ei 0.003 es 0.000 et 0.000 er 0.002] ------- [11:255 -1:255 29 0] [0x2 2 4 [3 0] [13 10]] (REQUEST)
D 0.014128133 _36_ MAC  COL 0 AODV 106 [0 ffffffff b 800] [energy 89.993973 ei 0.003 es 0.000 et 0.001 er 0.002] ------- [11:255 -1:255 29 0] [0x2 2 4 [3 0] [13 10]] (REQUEST)
D 0.014128134 _20_ MAC  COL 0 AODV 106 [0 ffffffff b 800] [energy 89.993973 ei 0.003 es 0.000 et 0.001 er 0.002] ------- [11:255 -1:255 29 0] [0x2 2 4 [3 0] [13 10]] (REQUEST)
D 0.014128137 _8_ MAC  COL 0 AODV 106 [0 ffffffff b 800] [energy 89.993973 ei 0.003 es 0.000 et 0.001 er 0.002] ------- [11:255 -1:255 29 0] [0x2 2 4 [3 0] [13 10]] (REQUEST)
D 0.014128140 _15_ MAC  COL 0 AODV 106 [0 ffffffff b 800] [energy 89.994821 ei 0.003 es 0.000 et 0.000 er 0.002] ------- [11:255 -1:255 29 0] [0x2 2 4 [3 0] [13 10]] (REQUEST)
D 0.014128291 _27_ MAC  COL 0 AODV 106 [0 ffffffff 30 800] [energy 89.993973 ei 0.003 es 0.000 et 0.001 er 0.002] ------- [48:255 -1:255 29 0] [0x2 2 1 [0 0] [13 4]] (REQUEST)
D 0.014974664 _35_ MAC  COL 0 AODV 106 [0 ffffffff 2d 800] [energy 89.994820 ei 0.003 es 0.000 et 0.000 er 0.002] ------- [45:255 -1:255 29 0] [0x2 2 1 [0 0] [13 4]] (REQUEST)
D 0.014974752 _21_ MAC  COL 0 AODV 106 [0 ffffffff 2d 800] [energy 89.994820 ei 0.003 es 0.000 et 0.000 er 0.002] ------- [45:255 -1:255 29 0] [0x2 2 1 [0 0] [13 4]] (REQUEST)
D 0.014974934 _7_ MAC  COL 0 AODV 106 [0 ffffffff 2d 800] [energy 89.994820 ei 0.003 es 0.000 et 0.000 er 0.002] ------- [45:255 -1:255 29 0] [0x2 2 1 [0 0] [13 4]] (REQUEST)
D 0.014975143 _19_ MAC  COL 0 AODV 106 [0 ffffffff b 800] [energy 89.994821 ei 0.003 es 0.000 et 0.000 er 0.002] ------- [11:255 -1:255 29 0] [0x2 2 4 [3 0] [13 10]] (REQUEST)
D 0.014975180 _25_ MAC  COL 0 AODV 106 [0 ffffffff b 800] [energy 89.993124 ei 0.003 es 0.000 et 0.002 er 0.002] ------- [11:255 -1:255 29 0] [0x2 2 4 [3 0] [13 10]] (REQUEST)
D 0.014975210 _10_ MAC  COL 0 AODV 106 [0 ffffffff b 800] [energy 89.994821 ei 0.003 es 0.000 et 0.000 er 0.002] ------- [11:255 -1:255 29 0] [0x2 2 4 [3 0] [13 10]] (REQUEST)
D 0.014975287 _51_ MAC  COL 0 AODV 106 [0 ffffffff 22 800] [energy 89.994821 ei 0.003 es 0.000 et 0.000 er 0.002] ------- [34:255 -1:255 29 0] [0x2 2 4 [3 0] [13 10]] (REQUEST)
D 0.014975304 _39_ MAC  COL 0 AODV 106 [0 ffffffff b 800] [energy 89.993973 ei 0.003 es 0.000 et 0.001 er 0.002] ------- [11:255 -1:255 29 0] [0x2 2 4 [3 0] [13 10]] (REQUEST)
D 0.014975345 _1_ MAC  COL 0 AODV 106 [0 ffffffff b 800] [energy 89.993973 ei 0.003 es 0.000 et 0.001 er 0.002] ------- [11:255 -1:255 29 0] [0x2 2 4 [3 0] [13 10]] (REQUEST)
D 0.014975350 _40_ MAC  COL 0 AODV 106 [0 ffffffff 22 800] [energy 89.993973 ei 0.003 es 0.000 et 0.001 er 0.002] ------- [34:255 -1:255 29 0] [0x2 2 4 [3 0] [13 10]] (REQUEST)
D 0.014975352 _53_ MAC  COL 0 AODV 106 [0 ffffffff b 800] [energy 89.994821 ei 0.003 es 0.000 et 0.000 er 0.002] ------- [11:255 -1:255 29 0] [0x2 2 4 [3 0] [13 10]] (REQUEST)
D 0.014975358 _16_ MAC  COL 0 AODV 106 [0 ffffffff b 800] [energy 89.994821 ei 0.003 es 0.000 et 0.000 er 0.002] ------- [11:255 -1:255 29 0] [0x2 2 4 [3 0] [13 10]] (REQUEST)
D 0.014975416 _37_ MAC  COL 0 AODV 106 [0 ffffffff 22 800] [energy 89.994820 ei 0.003 es 0.000 et 0.000 er 0.002] ------- [34:255 -1:255 29 0] [0x2 2 4 [3 0] [13 10]] (REQUEST)
D 0.014975574 _13_ MAC  COL 0 AODV 106 [0 ffffffff 22 800] [energy 89.993124 ei 0.003 es 0.000 et 0.002 er 0.002] ------- [34:255 -1:255 29 0] [0x2 2 4 [3 0] [13 10]] (REQUEST)
D 0.014975649 _6_ MAC  COL 0 AODV 106 [0 ffffffff 22 800] [energy 89.994821 ei 0.003 es 0.000 et 0.000 er 0.002] ------- [34:255 -1:255 29 0] [0x2 2 4 [3 0] [13 10]] (REQUEST)
D 0.014975739 _28_ MAC  COL 0 AODV 106 [0 ffffffff 22 800] [energy 89.994820 ei 0.003 es 0.000 et 0.000 er 0.002] ------- [34:255 -1:255 29 0] [0x2 2 4 [3 0] [13 10]] (REQUEST)
D 0.014975800 _12_ MAC  COL 0 AODV 106 [0 ffffffff 22 800] [energy 89.993125 ei 0.003 es 0.000 et 0.002 er 0.002] ------- [34:255 -1:255 29 0] [0x2 2 4 [3 0] [13 10]] (REQUEST)
D 0.014975805 _47_ MAC  COL 0 AODV 106 [0 ffffffff 22 800] [energy 89.994821 ei 0.003 es 0.000 et 0.000 er 0.002] ------- [34:255 -1:255 29 0] [0x2 2 4 [3 0] [13 10]] (REQUEST)
D 0.014975834 _49_ MAC  COL 0 AODV 106 [0 ffffffff 22 800] [energy 89.994822 ei 0.003 es 0.000 et 0.000 er 0.002] ------- [34:255 -1:255 29 0] [0x2 2 4 [3 0] [13 10]] (REQUEST)