M 0.00000 0 (0.00, 0.00, 0.00), (50.00, 50.00), 10000.00
M 0.00000 1 (0.00, 0.00, 0.00), (50.00, 150.00), 10000.00
M 0.00000 2 (0.00, 0.00, 0.00), (283.00, 262.00), 10000.00
M 0.00000 3 (0.00, 0.00, 0.00), (50.00, 350.00), 10000.00
M 0.00000 4 (0.00, 0.00, 0.00), (50.00, 450.00), 10000.00
M 0.00000 5 (0.00, 0.00, 0.00), (150.00, 50.00), 10000.00
M 0.00000 6 (0.00, 0.00, 0.00), (140.00, 136.00), 10000.00
M 0.00000 7 (0.00, 0.00, 0.00), (215.00, 321.00), 10000.00
M 0.00000 8 (0.00, 0.00, 0.00), (150.00, 350.00), 10000.00
M 0.00000 9 (0.00, 0.00, 0.00), (150.00, 450.00), 10000.00
M 0.00000 10 (0.00, 0.00, 0.00), (214.00, 199.00), 10000.00
M 0.00000 11 (0.00, 0.00, 0.00), (371.00, 265.00), 10000.00
M 0.00000 12 (0.00, 0.00, 0.00), (250.00, 250.00), 10000.00
M 0.00000 13 (0.00, 0.00, 0.00), (250.00, 5.00), 10000.00
M 0.00000 14 (0.00, 0.00, 0.00), (250.00, 450.00), 10000.00
M 0.00000 15 (0.00, 0.00, 0.00), (5.00, 50.00), 10000.00
M 0.00000 16 (0.00, 0.00, 0.00), (5.00, 150.00), 10000.00
M 0.00000 17 (0.00, 0.00, 0.00), (5.00, 250.00), 10000.00
M 0.00000 18 (0.00, 0.00, 0.00), (5.00, 5.00), 10000.00
M 0.00000 19 (0.00, 0.00, 0.00), (5.00, 450.00), 10000.00
s 0.100000000 _0_ AGT  --- 0 cbr 800 [0 0 0 0] [energy 90.000000 ei 0.000 es 0.000 et 0.000 er 0.000] ------- [0:3 11:0 32 0] [0] 0 0
r 0.100000000 _0_ RTR  --- 0 cbr 800 [0 0 0 0] [energy 90.000000 ei 0.000 es 0.000 et 0.000 er 0.000] ------- [0:3 11:0 32 0] [0] 0 0
s 0.100000000 _0_ RTR  --- 0 AODV 48 [0 0 0 0] [energy 90.000000 ei 0.000 es 0.000 et 0.000 er 0.000] ------- [0:255 -1:255 30 0] [0x2 1 1 [11 0] [0 4]] (REQUEST)
s 0.100395000 _0_ MAC  --- 0 AODV 106 [0 ffffffff 0 800] [energy 90.000000 ei 0.000 es 0.000 et 0.000 er 0.000] ------- [0:255 -1:255 30 0] [0x2 1 1 [11 0] [0 4]] (REQUEST)
N -t 0.100395 -n 15 -e 89.899456
N -t 0.100395 -n 18 -e 89.899456
N -t 0.100395 -n 1 -e 89.899456
N -t 0.100395 -n 5 -e 89.899456
N -t 0.100395 -n 16 -e 89.899456
N -t 0.100395 -n 6 -e 89.899456
N -t 0.100396 -n 13 -e 89.899456
N -t 0.100396 -n 17 -e 89.899456
N -t 0.100396 -n 10 -e 89.899456
N -t 0.100396 -n 12 -e 89.899456
N -t 0.100396 -n 3 -e 89.899456
N -t 0.100396 -n 2 -e 89.899456
N -t 0.100396 -n 8 -e 89.899456
N -t 0.100396 -n 7 -e 89.899456
N -t 0.100396 -n 11 -e 89.899455
N -t 0.100396 -n 4 -e 89.899455
N -t 0.100396 -n 19 -e 89.899455
N -t 0.100396 -n 9 -e 89.899455
N -t 0.100396 -n 14 -e 89.899455
r 0.101243150 _15_ MAC  --- 0 AODV 48 [0 ffffffff 0 800] [energy 89.899456 ei 0.100 es 0.000 et 0.000 er 0.000] ------- [0:255 -1:255 30 0] [0x2 1 1 [11 0] [0 4]] (REQUEST)
r 0.101243212 _18_ MAC  --- 0 AODV 48 [0 ffffffff 0 800] [energy 89.899456 ei 0.100 es 0.000 et 0.000 er 0.000] ------- [0:255 -1:255 30 0] [0x2 1 1 [11 0] [0 4]] (REQUEST)
r 0.101243333 _1_ MAC  --- 0 AODV 48 [0 ffffffff 0 800] [energy 89.899456 ei 0.100 es 0.000 et 0.000 er 0.000] ------- [0:255 -1:255 30 0] [0x2 1 1 [11 0] [0 4]] (REQUEST)
r 0.101243333 _5_ MAC  --- 0 AODV 48 [0 ffffffff 0 800] [energy 89.899456 ei 0.100 es 0.000 et 0.000 er 0.000] ------- [0:255 -1:255 30 0] [0x2 1 1 [11 0] [0 4]] (REQUEST)
r 0.101243366 _16_ MAC  --- 0 AODV 48 [0 ffffffff 0 800] [energy 89.899456 ei 0.100 es 0.000 et 0.000 er 0.000] ------- [0:255 -1:255 30 0] [0x2 1 1 [11 0] [0 4]] (REQUEST)
r 0.101243415 _6_ MAC  --- 0 AODV 48 [0 ffffffff 0 800] [energy 89.899456 ei 0.100 es 0.000 et 0.000 er 0.000] ------- [0:255 -1:255 30 0] [0x2 1 1 [11 0] [0 4]] (REQUEST)
r 0.101243683 _13_ MAC  --- 0 AODV 48 [0 ffffffff 0 800] [energy 89.899456 ei 0.100 es 0.000 et 0.000 er 0.000] ------- [0:255 -1:255 30 0] [0x2 1 1 [11 0] [0 4]] (REQUEST)
r 0.101243683 _17_ MAC  --- 0 AODV 48 [0 ffffffff 0 800] [energy 89.899456 ei 0.100 es 0.000 et 0.000 er 0.000] ------- [0:255 -1:255 30 0] [0x2 1 1 [11 0] [0 4]] (REQUEST)
r 0.101243739 _10_ MAC  --- 0 AODV 48 [0 ffffffff 0 800] [energy 89.899456 ei 0.100 es 0.000 et 0.000 er 0.000] ------- [0:255 -1:255 30 0] [0x2 1 1 [11 0] [0 4]] (REQUEST)
r 0.101268150 _15_ RTR  --- 0 AODV 48 [0 ffffffff 0 800] [energy 89.899456 ei 0.100 es 0.000 et 0.000 er 0.000] ------- [0:255 -1:255 30 0] [0x2 1 1 [11 0] [0 4]] (REQUEST)
r 0.101268212 _18_ RTR  --- 0 AODV 48 [0 ffffffff 0 800] [energy 89.899456 ei 0.100 es 0.000 et 0.000 er 0.000] ------- [0:255 -1:255 30 0] [0x2 1 1 [11 0] [0 4]] (REQUEST)
r 0.101268333 _1_ RTR  --- 0 AODV 48 [0 ffffffff 0 800] [energy 89.899456 ei 0.100 es 0.000 et 0.000 er 0.000] ------- [0:255 -1:255 30 0] [0x2 1 1 [11 0] [0 4]] (REQUEST)
r 0.101268333 _5_ RTR  --- 0 AODV 48 [0 ffffffff 0 800] [energy 89.899456 ei 0.100 es 0.000 et 0.000 er 0.000] ------- [0:255 -1:255 30 0] [0x2 1 1 [11 0] [0 4]] (REQUEST)
r 0.101268366 _16_ RTR  --- 0 AODV 48 [0 ffffffff 0 800] [energy 89.899456 ei 0.100 es 0.000 et 0.000 er 0.000] ------- [0:255 -1:255 30 0] [0x2 1 1 [11 0] [0 4]] (REQUEST)
r 0.101268415 _6_ RTR  --- 0 AODV 48 [0 ffffffff 0 800] [energy 89.899456 ei 0.100 es 0.000 et 0.000 er 0.000] ------- [0:255 -1:255 30 0] [0x2 1 1 [11 0] [0 4]] (REQUEST)
r 0.101268683 _13_ RTR  --- 0 AODV 48 [0 ffffffff 0 800] [energy 89.899456 ei 0.100 es 0.000 et 0.000 er 0.000] ------- [0:255 -1:255 30 0] [0x2 1 1 [11 0] [0 4]] (REQUEST)
r 0.101268683 _17_ RTR  --- 0 AODV 48 [0 ffffffff 0 800] [energy 89.899456 ei 0.100 es 0.000 et 0.000 er 0.000] ------- [0:255 -1:255 30 0] [0x2 1 1 [11 0] [0 4]] (REQUEST)
r 0.101268739 _10_ RTR  --- 0 AODV 48 [0 ffffffff 0 800] [energy 89.899456 ei 0.100 es 0.000 et 0.000 er 0.000] ------- [0:255 -1:255 30 0] [0x2 1 1 [11 0] [0 4]] (REQUEST)
s 0.103440278 _17_ RTR  --- 0 AODV 48 [0 ffffffff 0 800] [energy 89.899456 ei 0.100 es 0.000 et 0.000 er 0.000] ------- [17:255 -1:255 29 0] [0x2 2 1 [11 0] [0 4]] (REQUEST)
s 0.103555278 _17_ MAC  --- 0 AODV 106 [0 ffffffff 11 800] [energy 89.899456 ei 0.100 es 0.000 et 0.000 er 0.000] ------- [17:255 -1:255 29 0] [0x2 2 1 [11 0] [0 4]] (REQUEST)
N -t 0.103556 -n 16 -e 89.896996
N -t 0.103556 -n 3 -e 89.896996
N -t 0.103556 -n 1 -e 89.896996
N -t 0.103556 -n 8 -e 89.896995
N -t 0.103556 -n 6 -e 89.896995
N -t 0.103556 -n 19 -e 89.896995
N -t 0.103556 -n 15 -e 89.896995
N -t 0.103556 -n 4 -e 89.896995
N -t 0.103556 -n 0 -e 89.896147
N -t 0.103556 -n 10 -e 89.896995
N -t 0.103556 -n 7 -e 89.896995
N -t 0.103556 -n 18 -e 89.896995
N -t 0.103556 -n 12 -e 89.896995
N -t 0.103556 -n 9 -e 89.896995
N -t 0.103556 -n 5 -e 89.896995
N -t 0.103556 -n 2 -e 89.896995
N -t 0.103556 -n 14 -e 89.896995
N -t 0.103556 -n 13 -e 89.896995
N -t 0.103556 -n 11 -e 89.896995
s 0.103680995 _10_ RTR  --- 0 AODV 48 [0 ffffffff 0 800] [energy 89.896995 ei 0.103 es 0.000 et 0.000 er 0.000] ------- [10:255 -1:255 29 0] [0x2 2 1 [11 0] [0 4]] (REQUEST)
s 0.103849029 _15_ RTR  --- 0 AODV 48 [0 ffffffff 0 800] [energy 89.896995 ei 0.103 es 0.000 et 0.000 er 0.000] ------- [15:255 -1:255 29 0] [0x2 2 1 [11 0] [0 4]] (REQUEST)
r 0.104403611 _16_ MAC  --- 0 AODV 48 [0 ffffffff 11 800] [energy 89.896996 ei 0.103 es 0.000 et 0.000 er 0.000] ------- [17:255 -1:255 29 0] [0x2 2 1 [11 0] [0 4]] (REQUEST)
r 0.104403643 _3_ MAC  --- 0 AODV 48 [0 ffffffff 11 800] [energy 89.896996 ei 0.103 es 0.000 et 0.000 er 0.000] ------- [17:255 -1:255 29 0] [0x2 2 1 [11 0] [0 4]] (REQUEST)
r 0.104403643 _1_ MAC  --- 0 AODV 48 [0 ffffffff 11 800] [energy 89.896996 ei 0.103 es 0.000 et 0.000 er 0.000] ------- [17:255 -1:255 29 0] [0x2 2 1 [11 0] [0 4]] (REQUEST)
r 0.104403865 _8_ MAC  --- 0 AODV 48 [0 ffffffff 11 800] [energy 89.896995 ei 0.103 es 0.000 et 0.000 er 0.000] ------- [17:255 -1:255 29 0] [0x2 2 1 [11 0] [0 4]] (REQUEST)
r 0.104403867 _6_ MAC  --- 0 AODV 48 [0 ffffffff 11 800] [energy 89.896995 ei 0.103 es 0.000 et 0.000 er 0.000] ------- [17:255 -1:255 29 0] [0x2 2 1 [11 0] [0 4]] (REQUEST)
r 0.104403945 _19_ MAC  --- 0 AODV 48 [0 ffffffff 11 800] [energy 89.896995 ei 0.103 es 0.000 et 0.000 er 0.000] ------- [17:255 -1:255 29 0] [0x2 2 1 [11 0] [0 4]] (REQUEST)
r 0.104403945 _15_ MAC  --- 0 AODV 48 [0 ffffffff 11 800] [energy 89.896995 ei 0.103 es 0.000 et 0.000 er 0.000] ------- [17:255 -1:255 29 0] [0x2 2 1 [11 0] [0 4]] (REQUEST)
r 0.104403961 _4_ MAC  --- 0 AODV 48 [0 ffffffff 11 800] [energy 89.896995 ei 0.103 es 0.000 et 0.000 er 0.000] ------- [17:255 -1:255 29 0] [0x2 2 1 [11 0] [0 4]] (REQUEST)
r 0.104403961 _0_ MAC  --- 0 AODV 48 [0 ffffffff 11 800] [energy 89.896147 ei 0.103 es 0.000 et 0.001 er 0.000] ------- [17:255 -1:255 29 0] [0x2 2 1 [11 0] [0 4]] (REQUEST)
r 0.104403995 _10_ MAC  --- 0 AODV 48 [0 ffffffff 11 800] [energy 89.896995 ei 0.103 es 0.000 et 0.000 er 0.000] ------- [17:255 -1:255 29 0] [0x2 2 1 [11 0] [0 4]] (REQUEST)
r 0.104404017 _7_ MAC  --- 0 AODV 48 [0 ffffffff 11 800] [energy 89.896995 ei 0.103 es 0.000 et 0.000 er 0.000] ------- [17:255 -1:255 29 0] [0x2 2 1 [11 0] [0 4]] (REQUEST)
r 0.104404095 _18_ MAC  --- 0 AODV 48 [0 ffffffff 11 800] [energy 89.896995 ei 0.103 es 0.000 et 0.000 er 0.000] ------- [17:255 -1:255 29 0] [0x2 2 1 [11 0] [0 4]] (REQUEST)
r 0.104404095 _12_ MAC  --- 0 AODV 48 [0 ffffffff 11 800] [energy 89.896995 ei 0.103 es 0.000 et 0.000 er 0.000] ------- [17:255 -1:255 29 0] [0x2 2 1 [11 0] [0 4]] (REQUEST)
r 0.104404101 _9_ MAC  --- 0 AODV 48 [0 ffffffff 11 800] [energy 89.896995 ei 0.103 es 0.000 et 0.000 er 0.000] ------- [17:255 -1:255 29 0] [0x2 2 1 [11 0] [0 4]] (REQUEST)
r 0.104404101 _5_ MAC  --- 0 AODV 48 [0 ffffffff 11 800] [energy 89.896995 ei 0.103 es 0.000 et 0.000 er 0.000] ------- [17:255 -1:255 29 0] [0x2 2 1 [11 0] [0 4]] (REQUEST)
r 0.104428611 _16_ RTR  --- 0 AODV 48 [0 ffffffff 11 800] [energy 89.896996 ei 0.103 es 0.000 et 0.000 er 0.000] ------- [17:255 -1:255 29 0] [0x2 2 1 [11 0] [0 4]] (REQUEST)
r 0.104428643 _3_ RTR  --- 0 AODV 48 [0 ffffffff 11 800] [energy 89.896996 ei 0.103 es 0.000 et 0.000 er 0.000] ------- [17:255 -1:255 29 0] [0x2 2 1 [11 0] [0 4]] (REQUEST)
r 0.104428643 _1_ RTR  --- 0 AODV 48 [0 ffffffff 11 800] [energy 89.896996 ei 0.103 es 0.000 et 0.000 er 0.000] ------- [17:255 -1:255 29 0] [0x2 2 1 [11 0] [0 4]] (REQUEST)
r 0.104428865 _8_ RTR  --- 0 AODV 48 [0 ffffffff 11 800] [energy 89.896995 ei 0.103 es 0.000 et 0.000 er 0.000] ------- [17:255 -1:255 29 0] [0x2 2 1 [11 0] [0 4]] (REQUEST)
r 0.104428867 _6_ RTR  --- 0 AODV 48 [0 ffffffff 11 800] [energy 89.896995 ei 0.103 es 0.000 et 0.000 er 0.000] ------- [17:255 -1:255 29 0] [0x2 2 1 [11 0] [0 4]] (REQUEST)
r 0.104428945 _19_ RTR  --- 0 AODV 48 [0 ffffffff 11 800] [energy 89.896995 ei 0.103 es 0.000 et 0.000 er 0.000] ------- [17:255 -1:255 29 0] [0x2 2 1 [11 0] [0 4]] (REQUEST)
r 0.104428945 _15_ RTR  --- 0 AODV 48 [0 ffffffff 11 800] [energy 89.896995 ei 0.103 es 0.000 et 0.000 er 0.000] ------- [17:255 -1:255 29 0] [0x2 2 1 [11 0] [0 4]] (REQUEST)
r 0.104428961 _4_ RTR  --- 0 AODV 48 [0 ffffffff 11 800] [energy 89.896995 ei 0.103 es 0.000 et 0.000 er 0.000] ------- [17:255 -1:255 29 0] [0x2 2 1 [11 0] [0 4]] (REQUEST)
r 0.104428961 _0_ RTR  --- 0 AODV 48 [0 ffffffff 11 800] [energy 89.896147 ei 0.103 es 0.000 et 0.001 er 0.000] ------- [17:255 -1:255 29 0] [0x2 2 1 [11 0] [0 4]] (REQUEST)
r 0.104428995 _10_ RTR  --- 0 AODV 48 [0 ffffffff 11 800] [energy 89.896995 ei 0.103 es 0.000 et 0.000 er 0.000] ------- [17:255 -1:255 29 0] [0x2 2 1 [11 0] [0 4]] (REQUEST)
r 0.104429017 _7_ RTR  --- 0 AODV 48 [0 ffffffff 11 800] [energy 89.896995 ei 0.103 es 0.000 et 0.000 er 0.000] ------- [17:255 -1:255 29 0] [0x2 2 1 [11 0] [0 4]] (REQUEST)
r 0.104429095 _18_ RTR  --- 0 AODV 48 [0 ffffffff 11 800] [energy 89.896995 ei 0.103 es 0.000 et 0.000 er 0.000] ------- [17:255 -1:255 29 0] [0x2 2 1 [11 0] [0 4]] (REQUEST)
r 0.104429095 _12_ RTR  --- 0 AODV 48 [0 ffffffff 11 800] [energy 89.896995 ei 0.103 es 0.000 et 0.000 er 0.000] ------- [17:255 -1:255 29 0] [0x2 2 1 [11 0] [0 4]] (REQUEST)
r 0.104429101 _9_ RTR  --- 0 AODV 48 [0 ffffffff 11 800] [energy 89.896995 ei 0.103 es 0.000 et 0.000 er 0.000] ------- [17:255 -1:255 29 0] [0x2 2 1 [11 0] [0 4]] (REQUEST)
r 0.104429101 _5_ RTR  --- 0 AODV 48 [0 ffffffff 11 800] [energy 89.896995 ei 0.103 es 0.000 et 0.000 er 0.000] ------- [17:255 -1:255 29 0] [0x2 2 1 [11 0] [0 4]] (REQUEST)
s 0.104753995 _10_ MAC  --- 0 AODV 106 [0 ffffffff a 800] [energy 89.896995 ei 0.103 es 0.000 et 0.000 er 0.000] ------- [10:255 -1:255 29 0] [0x2 2 1 [11 0] [0 4]] (REQUEST)
N -t 0.104754 -n 12 -e 89.896497
N -t 0.104754 -n 2 -e 89.896496
N -t 0.104754 -n 6 -e 89.896496
N -t 0.104754 -n 7 -e 89.896496
N -t 0.104755 -n 5 -e 89.896496
N -t 0.104755 -n 8 -e 89.896496
N -t 0.104755 -n 11 -e 89.896496
N -t 0.104755 -n 1 -e 89.896496
N -t 0.104755 -n 13 -e 89.896496
N -t 0.104755 -n 16 -e 89.896496
N -t 0.104755 -n 17 -e 89.895648
N -t 0.104755 -n 0 -e 89.895648
N -t 0.104755 -n 3 -e 89.896496
N -t 0.104755 -n 14 -e 89.896496
N -t 0.104755 -n 15 -e 89.896496
N -t 0.104755 -n 9 -e 89.896496
N -t 0.104755 -n 18 -e 89.896496
N -t 0.104755 -n 4 -e 89.896496
N -t 0.104755 -n 19 -e 89.896496
s 0.105355069 _18_ RTR  --- 0 AODV 48 [0 ffffffff 0 800] [energy 89.896496 ei 0.103 es 0.000 et 0.000 er 0.000] ------- [18:255 -1:255 29 0] [0x2 2 1 [11 0] [0 4]] (REQUEST)
s 0.105520850 _8_ RTR  --- 0 AODV 48 [0 ffffffff 11 800] [energy 89.896496 ei 0.103 es 0.000 et 0.000 er 0.000] ------- [8:255 -1:255 28 0] [0x2 3 1 [11 0] [0 4]] (REQUEST)
r 0.105602203 _12_ MAC  --- 0 AODV 48 [0 ffffffff a 800] [energy 89.896497 ei 0.103 es 0.000 et 0.000 er 0.000] ------- [10:255 -1:255 29 0] [0x2 2 1 [11 0] [0 4]] (REQUEST)
r 0.105602306 _2_ MAC  --- 0 AODV 48 [0 ffffffff a 800] [energy 89.896496 ei 0.103 es 0.000 et 0.000 er 0.000] ------- [10:255 -1:255 29 0] [0x2 2 1 [11 0] [0 4]] (REQUEST)
r 0.105602319 _6_ MAC  --- 0 AODV 48 [0 ffffffff a 800] [energy 89.896496 ei 0.103 es 0.000 et 0.000 er 0.000] ------- [10:255 -1:255 29 0] [0x2 2 1 [11 0] [0 4]] (REQUEST)
r 0.105602402 _7_ MAC  --- 0 AODV 48 [0 ffffffff a 800] [energy 89.896496 ei 0.103 es 0.000 et 0.000 er 0.000] ------- [10:255 -1:255 29 0] [0x2 2 1 [11 0] [0 4]] (REQUEST)
r 0.105602536 _5_ MAC  --- 0 AODV 48 [0 ffffffff a 800] [energy 89.896496 ei 0.103 es 0.000 et 0.000 er 0.000] ------- [10:255 -1:255 29 0] [0x2 2 1 [11 0] [0 4]] (REQUEST)
r 0.105602542 _8_ MAC  --- 0 AODV 48 [0 ffffffff a 800] [energy 89.896496 ei 0.103 es 0.000 et 0.000 er 0.000] ------- [10:255 -1:255 29 0] [0x2 2 1 [11 0] [0 4]] (REQUEST)
r 0.105602563 _11_ MAC  --- 0 AODV 48 [0 ffffffff a 800] [energy 89.896496 ei 0.103 es 0.000 et 0.000 er 0.000] ------- [10:255 -1:255 29 0] [0x2 2 1 [11 0] [0 4]] (REQUEST)
r 0.105602566 _1_ MAC  --- 0 AODV 48 [0 ffffffff a 800] [energy 89.896496 ei 0.103 es 0.000 et 0.000 er 0.000] ------- [10:255 -1:255 29 0] [0x2 2 1 [11 0] [0 4]] (REQUEST)
r 0.105602653 _13_ MAC  --- 0 AODV 48 [0 ffffffff a 800] [energy 89.896496 ei 0.103 es 0.000 et 0.000 er 0.000] ------- [10:255 -1:255 29 0] [0x2 2 1 [11 0] [0 4]] (REQUEST)
r 0.105602711 _16_ MAC  --- 0 AODV 48 [0 ffffffff a 800] [energy 89.896496 ei 0.103 es 0.000 et 0.000 er 0.000] ------- [10:255 -1:255 29 0] [0x2 2 1 [11 0] [0 4]] (REQUEST)
r 0.105602712 _17_ MAC  --- 0 AODV 48 [0 ffffffff a 800] [energy 89.895648 ei 0.103 es 0.000 et 0.001 er 0.000] ------- [10:255 -1:255 29 0] [0x2 2 1 [11 0] [0 4]] (REQUEST)
r 0.105602734 _0_ MAC  --- 0 AODV 48 [0 ffffffff a 800] [energy 89.895648 ei 0.103 es 0.000 et 0.001 er 0.000] ------- [10:255 -1:255 29 0] [0x2 2 1 [11 0] [0 4]] (REQUEST)
r 0.105602738 _3_ MAC  --- 0 AODV 48 [0 ffffffff a 800] [energy 89.896496 ei 0.103 es 0.000 et 0.000 er 0.000] ------- [10:255 -1:255 29 0] [0x2 2 1 [11 0] [0 4]] (REQUEST)
r 0.105627203 _12_ RTR  --- 0 AODV 48 [0 ffffffff a 800] [energy 89.896497 ei 0.103 es 0.000 et 0.000 er 0.000] ------- [10:255 -1:255 29 0] [0x2 2 1 [11 0] [0 4]] (REQUEST)
r 0.105627306 _2_ RTR  --- 0 AODV 48 [0 ffffffff a 800] [energy 89.896496 ei 0.103 es 0.000 et 0.000 er 0.000] ------- [10:255 -1:255 29 0] [0x2 2 1 [11 0] [0 4]] (REQUEST)
r 0.105627319 _6_ RTR  --- 0 AODV 48 [0 ffffffff a 800] [energy 89.896496 ei 0.103 es 0.000 et 0.000 er 0.000] ------- [10:255 -1:255 29 0] [0x2 2 1 [11 0] [0 4]] (REQUEST)
r 0.105627402 _7_ RTR  --- 0 AODV 48 [0 ffffffff a 800] [energy 89.896496 ei 0.103 es 0.000 et 0.000 er 0.000] ------- [10:255 -1:255 29 0] [0x2 2 1 [11 0] [0 4]] (REQUEST)
r 0.105627536 _5_ RTR  --- 0 AODV 48 [0 ffffffff a 800] [energy 89.896496 ei 0.103 es 0.000 et 0.000 er 0.000] ------- [10:255 -1:255 29 0] [0x2 2 1 [11 0] [0 4]] (REQUEST)
r 0.105627542 _8_ RTR  --- 0 AODV 48 [0 ffffffff a 800] [energy 89.896496 ei 0.103 es 0.000 et 0.000 er 0.000] ------- [10:255 -1:255 29 0] [0x2 2 1 [11 0] [0 4]] (REQUEST)
r 0.105627563 _11_ RTR  --- 0 AODV 48 [0 ffffffff a 800] [energy 89.896496 ei 0.103 es 0.000 et 0.000 er 0.000] ------- [10:255 -1:255 29 0] [0x2 2 1 [11 0] [0 4]] (REQUEST)
s 0.105627563 _11_ RTR  --- 0 AODV 44 [0 0 0 0] [energy 89.896496 ei 0.103 es 0.000 et 0.000 er 0.000] ------- [11:255 0:255 30 10] [0x4 1 [11 4] 10.000000] (REPLY)
r 0.105627566 _1_ RTR  --- 0 AODV 48 [0 ffffffff a 800] [energy 89.896496 ei 0.103 es 0.000 et 0.000 er 0.000] ------- [10:255 -1:255 29 0] [0x2 2 1 [11 0] [0 4]] (REQUEST)
r 0.105627653 _13_ RTR  --- 0 AODV 48 [0 ffffffff a 800] [energy 89.896496 ei 0.103 es 0.000 et 0.000 er 0.000] ------- [10:255 -1:255 29 0] [0x2 2 1 [11 0] [0 4]] (REQUEST)
r 0.105627711 _16_ RTR  --- 0 AODV 48 [0 ffffffff a 800] [energy 89.896496 ei 0.103 es 0.000 et 0.000 er 0.000] ------- [10:255 -1:255 29 0] [0x2 2 1 [11 0] [0 4]] (REQUEST)
r 0.105627712 _17_ RTR  --- 0 AODV 48 [0 ffffffff a 800] [energy 89.895648 ei 0.103 es 0.000 et 0.001 er 0.000] ------- [10:255 -1:255 29 0] [0x2 2 1 [11 0] [0 4]] (REQUEST)
r 0.105627734 _0_ RTR  --- 0 AODV 48 [0 ffffffff a 800] [energy 89.895648 ei 0.103 es 0.000 et 0.001 er 0.000] ------- [10:255 -1:255 29 0] [0x2 2 1 [11 0] [0 4]] (REQUEST)
r 0.105627738 _3_ RTR  --- 0 AODV 48 [0 ffffffff a 800] [energy 89.896496 ei 0.103 es 0.000 et 0.000 er 0.000] ------- [10:255 -1:255 29 0] [0x2 2 1 [11 0] [0 4]] (REQUEST)
s 0.105712542 _8_ MAC  --- 0 AODV 106 [0 ffffffff 8 800] [energy 89.896496 ei 0.103 es 0.000 et 0.000 er 0.000] ------- [8:255 -1:255 28 0] [0x2 3 1 [11 0] [0 4]] (REQUEST)
N -t 0.105713 -n 7 -e 89.896238
N -t 0.105713 -n 9 -e 89.896238
N -t 0.105713 -n 3 -e 89.896238
N -t 0.105713 -n 4 -e 89.896237
N -t 0.105713 -n 14 -e 89.896237
N -t 0.105713 -n 12 -e 89.896237
N -t 0.105713 -n 2 -e 89.896237
N -t 0.105713 -n 10 -e 89.895389
N -t 0.105713 -n 17 -e 89.895389
N -t 0.105713 -n 19 -e 89.896237
N -t 0.105713 -n 6 -e 89.896237
N -t 0.105713 -n 1 -e 89.896237
N -t 0.105713 -n 11 -e 89.896237
N -t 0.105713 -n 16 -e 89.896237
N -t 0.105714 -n 5 -e 89.896237
N -t 0.105714 -n 0 -e 89.895389
N -t 0.105714 -n 15 -e 89.896237
N -t 0.105714 -n 13 -e 89.896237
N -t 0.105714 -n 18 -e 89.896237
s 0.105929493 _5_ RTR  --- 0 AODV 48 [0 ffffffff 0 800] [energy 89.896237 ei 0.103 es 0.000 et 0.000 er 0.001] ------- [5:255 -1:255 29 0] [0x2 2 1 [11 0] [0 4]] (REQUEST)
s 0.106302614 _4_ RTR  --- 0 AODV 48 [0 ffffffff 11 800] [energy 89.896237 ei 0.103 es 0.000 et 0.000 er 0.001] ------- [4:255 -1:255 28 0] [0x2 3 1 [11 0] [0 4]] (REQUEST)
s 0.106454821 _1_ RTR  --- 0 AODV 48 [0 ffffffff 0 800] [energy 89.896237 ei 0.103 es 0.000 et 0.000 er 0.001] ------- [1:255 -1:255 29 0] [0x2 2 1 [11 0] [0 4]] (REQUEST)
r 0.106560779 _7_ MAC  --- 0 AODV 48 [0 ffffffff 8 800] [energy 89.896238 ei 0.103 es 0.000 et 0.000 er 0.001] ------- [8:255 -1:255 28 0] [0x2 3 1 [11 0] [0 4]] (REQUEST)
r 0.106560875 _9_ MAC  --- 0 AODV 48 [0 ffffffff 8 800] [energy 89.896238 ei 0.103 es 0.000 et 0.000 er 0.001] ------- [8:255 -1:255 28 0] [0x2 3 1 [11 0] [0 4]] (REQUEST)
r 0.106560875 _3_ MAC  --- 0 AODV 48 [0 ffffffff 8 800] [energy 89.896238 ei 0.103 es 0.000 et 0.000 er 0.001] ------- [8:255 -1:255 28 0] [0x2 3 1 [11 0] [0 4]] (REQUEST)
r 0.106561013 _4_ MAC  --- 0 AODV 48 [0 ffffffff 8 800] [energy 89.896237 ei 0.103 es 0.000 et 0.000 er 0.001] ------- [8:255 -1:255 28 0] [0x2 3 1 [11 0] [0 4]] (REQUEST)
r 0.106561013 _14_ MAC  --- 0 AODV 48 [0 ffffffff 8 800] [energy 89.896237 ei 0.103 es 0.000 et 0.000 er 0.001] ------- [8:255 -1:255 28 0] [0x2 3 1 [11 0] [0 4]] (REQUEST)
r 0.106561013 _12_ MAC  --- 0 AODV 48 [0 ffffffff 8 800] [energy 89.896237 ei 0.103 es 0.000 et 0.000 er 0.001] ------- [8:255 -1:255 28 0] [0x2 3 1 [11 0] [0 4]] (REQUEST)
r 0.106561073 _2_ MAC  --- 0 AODV 48 [0 ffffffff 8 800] [energy 89.896237 ei 0.103 es 0.000 et 0.000 er 0.001] ------- [8:255 -1:255 28 0] [0x2 3 1 [11 0] [0 4]] (REQUEST)
r 0.106561088 _10_ MAC  --- 0 AODV 48 [0 ffffffff 8 800] [energy 89.895389 ei 0.103 es 0.000 et 0.001 er 0.000] ------- [8:255 -1:255 28 0] [0x2 3 1 [11 0] [0 4]] (REQUEST)
r 0.106561129 _17_ MAC  --- 0 AODV 48 [0 ffffffff 8 800] [energy 89.895389 ei 0.103 es 0.000 et 0.001 er 0.000] ------- [8:255 -1:255 28 0] [0x2 3 1 [11 0] [0 4]] (REQUEST)
r 0.106561129 _19_ MAC  --- 0 AODV 48 [0 ffffffff 8 800] [energy 89.896237 ei 0.103 es 0.000 et 0.000 er 0.001] ------- [8:255 -1:255 28 0] [0x2 3 1 [11 0] [0 4]] (REQUEST)
r 0.106561256 _6_ MAC  --- 0 AODV 48 [0 ffffffff 8 800] [energy 89.896237 ei 0.103 es 0.000 et 0.000 er 0.001] ------- [8:255 -1:255 28 0] [0x2 3 1 [11 0] [0 4]] (REQUEST)
r 0.106561287 _1_ MAC  --- 0 AODV 48 [0 ffffffff 8 800] [energy 89.896237 ei 0.103 es 0.000 et 0.000 er 0.001] ------- [8:255 -1:255 28 0] [0x2 3 1 [11 0] [0 4]] (REQUEST)
r 0.106561331 _11_ MAC  --- 0 AODV 48 [0 ffffffff 8 800] [energy 89.896237 ei 0.103 es 0.000 et 0.000 er 0.001] ------- [8:255 -1:255 28 0] [0x2 3 1 [11 0] [0 4]] (REQUEST)
r 0.106561365 _16_ MAC  --- 0 AODV 48 [0 ffffffff 8 800] [energy 89.896237 ei 0.103 es 0.000 et 0.000 er 0.001] ------- [8:255 -1:255 28 0] [0x2 3 1 [11 0] [0 4]] (REQUEST)
r 0.106585779 _7_ RTR  --- 0 AODV 48 [0 ffffffff 8 800] [energy 89.896238 ei 0.103 es 0.000 et 0.000 er 0.001] ------- [8:255 -1:255 28 0] [0x2 3 1 [11 0] [0 4]] (REQUEST)
r 0.106585875 _9_ RTR  --- 0 AODV 48 [0 ffffffff 8 800] [energy 89.896238 ei 0.103 es 0.000 et 0.000 er 0.001] ------- [8:255 -1:255 28 0] [0x2 3 1 [11 0] [0 4]] (REQUEST)
r 0.106585875 _3_ RTR  --- 0 AODV 48 [0 ffffffff 8 800] [energy 89.896238 ei 0.103 es 0.000 et 0.000 er 0.001] ------- [8:255 -1:255 28 0] [0x2 3 1 [11 0] [0 4]] (REQUEST)
r 0.106586013 _4_ RTR  --- 0 AODV 48 [0 ffffffff 8 800] [energy 89.896237 ei 0.103 es 0.000 et 0.000 er 0.001] ------- [8:255 -1:255 28 0] [0x2 3 1 [11 0] [0 4]] (REQUEST)
r 0.106586013 _14_ RTR  --- 0 AODV 48 [0 ffffffff 8 800] [energy 89.896237 ei 0.103 es 0.000 et 0.000 er 0.001] ------- [8:255 -1:255 28 0] [0x2 3 1 [11 0] [0 4]] (REQUEST)
r 0.106586013 _12_ RTR  --- 0 AODV 48 [0 ffffffff 8 800] [energy 89.896237 ei 0.103 es 0.000 et 0.000 er 0.001] ------- [8:255 -1:255 28 0] [0x2 3 1 [11 0] [0 4]] (REQUEST)
r 0.106586073 _2_ RTR  --- 0 AODV 48 [0 ffffffff 8 800] [energy 89.896237 ei 0.103 es 0.000 et 0.000 er 0.001] ------- [8:255 -1:255 28 0] [0x2 3 1 [11 0] [0 4]] (REQUEST)
r 0.106586088 _10_ RTR  --- 0 AODV 48 [0 ffffffff 8 800] [energy 89.895389 ei 0.103 es 0.000 et 0.001 er 0.000] ------- [8:255 -1:255 28 0] [0x2 3 1 [11 0] [0 4]] (REQUEST)
r 0.106586129 _17_ RTR  --- 0 AODV 48 [0 ffffffff 8 800] [energy 89.895389 ei 0.103 es 0.000 et 0.001 er 0.000] ------- [8:255 -1:255 28 0] [0x2 3 1 [11 0] [0 4]] (REQUEST)
r 0.106586129 _19_ RTR  --- 0 AODV 48 [0 ffffffff 8 800] [energy 89.896237 ei 0.103 es 0.000 et 0.000 er 0.001] ------- [8:255 -1:255 28 0] [0x2 3 1 [11 0] [0 4]] (REQUEST)
r 0.106586256 _6_ RTR  --- 0 AODV 48 [0 ffffffff 8 800] [energy 89.896237 ei 0.103 es 0.000 et 0.000 er 0.001] ------- [8:255 -1:255 28 0] [0x2 3 1 [11 0] [0 4]] (REQUEST)
r 0.106586287 _1_ RTR  --- 0 AODV 48 [0 ffffffff 8 800] [energy 89.896237 ei 0.103 es 0.000 et 0.000 er 0.001] ------- [8:255 -1:255 28 0] [0x2 3 1 [11 0] [0 4]] (REQUEST)
r 0.106586331 _11_ RTR  --- 0 AODV 48 [0 ffffffff 8 800] [energy 89.896237 ei 0.103 es 0.000 et 0.000 er 0.001] ------- [8:255 -1:255 28 0] [0x2 3 1 [11 0] [0 4]] (REQUEST)
r 0.106586365 _16_ RTR  --- 0 AODV 48 [0 ffffffff 8 800] [energy 89.896237 ei 0.103 es 0.000 et 0.000 er 0.001] ------- [8:255 -1:255 28 0] [0x2 3 1 [11 0] [0 4]] (REQUEST)
s 0.106791013 _4_ MAC  --- 0 AODV 106 [0 ffffffff 4 800] [energy 89.896237 ei 0.103 es 0.000 et 0.000 er 0.001] ------- [4:255 -1:255 28 0] [0x2 3 1 [11 0] [0 4]] (REQUEST)
N -t 0.106791 -n 19 -e 89.895859
N -t 0.106791 -n 3 -e 89.895859
N -t 0.106791 -n 9 -e 89.895859
N -t 0.106791 -n 8 -e 89.895011
N -t 0.106792 -n 14 -e 89.895858
N -t 0.106792 -n 17 -e 89.895010
N -t 0.106792 -n 7 -e 89.895858
N -t 0.106792 -n 12 -e 89.895858
N -t 0.106792 -n 2 -e 89.895858
N -t 0.106792 -n 10 -e 89.895010
N -t 0.106792 -n 1 -e 89.895858
N -t 0.106792 -n 16 -e 89.895858
N -t 0.106792 -n 6 -e 89.895858
N -t 0.106792 -n 11 -e 89.895858
N -t 0.106792 -n 0 -e 89.895010
N -t 0.106792 -n 15 -e 89.895858
N -t 0.106792 -n 5 -e 89.895858
N -t 0.106793 -n 18 -e 89.895857
N -t 0.106793 -n 13 -e 89.895857
r 0.107639163 _19_ MAC  --- 0 AODV 48 [0 ffffffff 4 800] [energy 89.895859 ei 0.103 es 0.000 et 0.000 er 0.001] ------- [4:255 -1:255 28 0] [0x2 3 1 [11 0] [0 4]] (REQUEST)
r 0.107639346 _3_ MAC  --- 0 AODV 48 [0 ffffffff 4 800] [energy 89.895859 ei 0.103 es 0.000 et 0.000 er 0.001] ------- [4:255 -1:255 28 0] [0x2 3 1 [11 0] [0 4]] (REQUEST)
r 0.107639346 _9_ MAC  --- 0 AODV 48 [0 ffffffff 4 800] [energy 89.895859 ei 0.103 es 0.000 et 0.000 er 0.001] ------- [4:255 -1:255 28 0] [0x2 3 1 [11 0] [0 4]] (REQUEST)
r 0.107639485 _8_ MAC  --- 0 AODV 48 [0 ffffffff 4 800] [energy 89.895011 ei 0.103 es 0.000 et 0.001 er 0.001] ------- [4:255 -1:255 28 0] [0x2 3 1 [11 0] [0 4]] (REQUEST)
r 0.107639680 _14_ MAC  --- 0 AODV 48 [0 ffffffff 4 800] [energy 89.895858 ei 0.103 es 0.000 et 0.000 er 0.001] ------- [4:255 -1:255 28 0] [0x2 3 1 [11 0] [0 4]] (REQUEST)
r 0.107639696 _17_ MAC  --- 0 AODV 48 [0 ffffffff 4 800] [energy 89.895010 ei 0.103 es 0.000 et 0.001 er 0.001] ------- [4:255 -1:255 28 0] [0x2 3 1 [11 0] [0 4]] (REQUEST)
r 0.107639711 _7_ MAC  --- 0 AODV 48 [0 ffffffff 4 800] [energy 89.895858 ei 0.103 es 0.000 et 0.000 er 0.001] ------- [4:255 -1:255 28 0] [0x2 3 1 [11 0] [0 4]] (REQUEST)
r 0.107664163 _19_ RTR  --- 0 AODV 48 [0 ffffffff 4 800] [energy 89.895859 ei 0.103 es 0.000 et 0.000 er 0.001] ------- [4:255 -1:255 28 0] [0x2 3 1 [11 0] [0 4]] (REQUEST)
r 0.107664346 _3_ RTR  --- 0 AODV 48 [0 ffffffff 4 800] [energy 89.895859 ei 0.103 es 0.000 et 0.000 er 0.001] ------- [4:255 -1:255 28 0] [0x2 3 1 [11 0] [0 4]] (REQUEST)
r 0.107664346 _9_ RTR  --- 0 AODV 48 [0 ffffffff 4 800] [energy 89.895859 ei 0.103 es 0.000 et 0.000 er 0.001] ------- [4:255 -1:255 28 0] [0x2 3 1 [11 0] [0 4]] (REQUEST)
r 0.107664485 _8_ RTR  --- 0 AODV 48 [0 ffffffff 4 800] [energy 89.895011 ei 0.103 es 0.000 et 0.001 er 0.001] ------- [4:255 -1:255 28 0] [0x2 3 1 [11 0] [0 4]] (REQUEST)
r 0.107664680 _14_ RTR  --- 0 AODV 48 [0 ffffffff 4 800] [energy 89.895858 ei 0.103 es 0.000 et 0.000 er 0.001] ------- [4:255 -1:255 28 0] [0x2 3 1 [11 0] [0 4]] (REQUEST)
r 0.107664696 _17_ RTR  --- 0 AODV 48 [0 ffffffff 4 800] [energy 89.895010 ei 0.103 es 0.000 et 0.001 er 0.001] ------- [4:255 -1:255 28 0] [0x2 3 1 [11 0] [0 4]] (REQUEST)
r 0.107664711 _7_ RTR  --- 0 AODV 48 [0 ffffffff 4 800] [energy 89.895858 ei 0.103 es 0.000 et 0.000 er 0.001] ------- [4:255 -1:255 28 0] [0x2 3 1 [11 0] [0 4]] (REQUEST)
s 0.108114355 _15_ MAC  --- 0 AODV 106 [0 ffffffff f 800] [energy 89.895858 ei 0.103 es 0.000 et 0.000 er 0.001] ------- [15:255 -1:255 29 0] [0x2 2 1 [11 0] [0 4]] (REQUEST)
N -t 0.108115 -n 18 -e 89.895235
N -t 0.108115 -n 0 -e 89.894387
N -t 0.108115 -n 16 -e 89.895235
N -t 0.108115 -n 1 -e 89.895235
N -t 0.108115 -n 5 -e 89.895235
N -t 0.108115 -n 6 -e 89.895235
N -t 0.108115 -n 17 -e 89.894387
N -t 0.108115 -n 13 -e 89.895234
N -t 0.108115 -n 10 -e 89.894386
N -t 0.108115 -n 3 -e 89.895234
N -t 0.108115 -n 12 -e 89.895234
N -t 0.108115 -n 8 -e 89.894386
N -t 0.108115 -n 7 -e 89.895234
N -t 0.108116 -n 2 -e 89.895234
N -t 0.108116 -n 19 -e 89.895234
N -t 0.108116 -n 4 -e 89.894386
N -t 0.108116 -n 11 -e 89.895234
N -t 0.108116 -n 9 -e 89.895234
N -t 0.108116 -n 14 -e 89.895234
s 0.108191434 _16_ RTR  --- 0 AODV 48 [0 ffffffff 0 800] [energy 89.895235 ei 0.104 es 0.000 et 0.000 er 0.001] ------- [16:255 -1:255 29 0] [0x2 2 1 [11 0] [0 4]] (REQUEST)
s 0.108471020 _19_ RTR  --- 0 AODV 48 [0 ffffffff 11 800] [energy 89.895234 ei 0.104 es 0.000 et 0.000 er 0.001] ------- [19:255 -1:255 28 0] [0x2 3 1 [11 0] [0 4]] (REQUEST)
s 0.108483834 _3_ RTR  --- 0 AODV 48 [0 ffffffff 11 800] [energy 89.895234 ei 0.104 es 0.000 et 0.000 er 0.001] ------- [3:255 -1:255 28 0] [0x2 3 1 [11 0] [0 4]] (REQUEST)
r 0.108962505 _18_ MAC  --- 0 AODV 48 [0 ffffffff f 800] [energy 89.895235 ei 0.104 es 0.000 et 0.000 er 0.001] ------- [15:255 -1:255 29 0] [0x2 2 1 [11 0] [0 4]] (REQUEST)
r 0.108962505 _0_ MAC  --- 0 AODV 48 [0 ffffffff f 800] [energy 89.894387 ei 0.104 es 0.000 et 0.001 er 0.001] ------- [15:255 -1:255 29 0] [0x2 2 1 [11 0] [0 4]] (REQUEST)
r 0.108962688 _16_ MAC  --- 0 AODV 48 [0 ffffffff f 800] [energy 89.895235 ei 0.104 es 0.000 et 0.000 er 0.001] ------- [15:255 -1:255 29 0] [0x2 2 1 [11 0] [0 4]] (REQUEST)
r 0.108962720 _1_ MAC  --- 0 AODV 48 [0 ffffffff f 800] [energy 89.895235 ei 0.104 es 0.000 et 0.000 er 0.001] ------- [15:255 -1:255 29 0] [0x2 2 1 [11 0] [0 4]] (REQUEST)
r 0.108962838 _5_ MAC  --- 0 AODV 48 [0 ffffffff f 800] [energy 89.895235 ei 0.104 es 0.000 et 0.000 er 0.001] ------- [15:255 -1:255 29 0] [0x2 2 1 [11 0] [0 4]] (REQUEST)
r 0.108962888 _6_ MAC  --- 0 AODV 48 [0 ffffffff f 800] [energy 89.895235 ei 0.104 es 0.000 et 0.000 er 0.001] ------- [15:255 -1:255 29 0] [0x2 2 1 [11 0] [0 4]] (REQUEST)
r 0.108963022 _17_ MAC  --- 0 AODV 48 [0 ffffffff f 800] [energy 89.894387 ei 0.104 es 0.000 et 0.001 er 0.001] ------- [15:255 -1:255 29 0] [0x2 2 1 [11 0] [0 4]] (REQUEST)
r 0.108963185 _13_ MAC  --- 0 AODV 48 [0 ffffffff f 800] [energy 89.895234 ei 0.104 es 0.000 et 0.000 er 0.001] ------- [15:255 -1:255 29 0] [0x2 2 1 [11 0] [0 4]] (REQUEST)