M 0.00000 0 (0.00, 0.00, 0.00), (50.00, 50.00), 10000.00
M 0.00000 1 (0.00, 0.00, 0.00), (50.00, 150.00), 10000.00
M 0.00000 2 (0.00, 0.00, 0.00), (50.00, 250.00), 10000.00
M 0.00000 3 (0.00, 0.00, 0.00), (50.00, 5.00), 10000.00
M 0.00000 4 (0.00, 0.00, 0.00), (50.00, 450.00), 10000.00
M 0.00000 5 (0.00, 0.00, 0.00), (150.00, 50.00), 10000.00
M 0.00000 6 (0.00, 0.00, 0.00), (150.00, 150.00), 10000.00
M 0.00000 7 (0.00, 0.00, 0.00), (150.00, 250.00), 10000.00
M 0.00000 8 (0.00, 0.00, 0.00), (150.00, 5.00), 10000.00
M 0.00000 9 (0.00, 0.00, 0.00), (150.00, 450.00), 10000.00
M 0.00000 10 (0.00, 0.00, 0.00), (250.00, 50.00), 10000.00
M 0.00000 11 (0.00, 0.00, 0.00), (250.00, 150.00), 10000.00
M 0.00000 12 (0.00, 0.00, 0.00), (250.00, 250.00), 10000.00
M 0.00000 13 (0.00, 0.00, 0.00), (250.00, 5.00), 10000.00
M 0.00000 14 (0.00, 0.00, 0.00), (250.00, 450.00), 10000.00
M 0.00000 15 (0.00, 0.00, 0.00), (5.00, 50.00), 10000.00
M 0.00000 16 (0.00, 0.00, 0.00), (5.00, 150.00), 10000.00
M 0.00000 17 (0.00, 0.00, 0.00), (5.00, 250.00), 10000.00
M 0.00000 18 (0.00, 0.00, 0.00), (5.00, 5.00), 10000.00
M 0.00000 19 (0.00, 0.00, 0.00), (5.00, 450.00), 10000.00
M 0.00000 20 (0.00, 0.00, 0.00), (450.00, 50.00), 10000.00
M 0.00000 21 (0.00, 0.00, 0.00), (450.00, 150.00), 10000.00
M 0.00000 22 (0.00, 0.00, 0.00), (450.00, 250.00), 10000.00
M 0.00000 23 (0.00, 0.00, 0.00), (450.00, 5.00), 10000.00
M 0.00000 24 (0.00, 0.00, 0.00), (450.00, 450.00), 10000.00
M 0.00000 25 (0.00, 0.00, 0.00), (0.10, 0.10), 10000.00
M 0.00000 26 (0.00, 0.00, 0.00), (450.00, 10.00), 10000.00
M 0.00000 27 (0.00, 0.00, 0.00), (499.00, 250.00), 10000.00
M 0.00000 28 (0.00, 0.00, 0.00), (499.00, 5.00), 10000.00
M 0.00000 29 (0.00, 0.00, 0.00), (499.00, 150.00), 10000.00
M 0.00000 30 (0.00, 0.00, 0.00), (475.00, 50.00), 10000.00
M 0.00000 31 (0.00, 0.00, 0.00), (425.00, 150.00), 10000.00
M 0.00000 32 (0.00, 0.00, 0.00), (375.00, 250.00), 10000.00
M 0.00000 33 (0.00, 0.00, 0.00), (275.00, 5.00), 10000.00
M 0.00000 34 (0.00, 0.00, 0.00), (275.00, 450.00), 10000.00
M 0.00000 35 (0.00, 0.00, 0.00), (50.10, 0.10), 10000.00
M 0.00000 36 (0.00, 0.00, 0.00), (200.00, 10.00), 10000.00
M 0.00000 37 (0.00, 0.00, 0.00), (324.00, 250.00), 10000.00
M 0.00000 38 (0.00, 0.00, 0.00), (224.00, 5.00), 10000.00
M 0.00000 39 (0.00, 0.00, 0.00), (349.00, 150.00), 10000.00
s 0.100000000 _0_ AGT  --- 0 tcp 40 [0 0 0 0] [energy 60.000000 ei 0.000 es 0.000 et 0.000 er 0.000] ------- [0:1 3:0 32 0] [0 0] 0 0
r 0.100000000 _0_ RTR  --- 0 tcp 40 [0 0 0 0] [energy 60.000000 ei 0.000 es 0.000 et 0.000 er 0.000] ------- [0:1 3:0 32 0] [0 0] 0 0
s 0.100000000 _0_ RTR  --- 0 AODV 48 [0 0 0 0] [energy 60.000000 ei 0.000 es 0.000 et 0.000 er 0.000] ------- [0:255 -1:255 30 0] [0x2 1 1 [3 0] [0 4]] (REQUEST)
s 0.100295000 _0_ MAC  --- 0 AODV 106 [0 ffffffff 0 800] [energy 60.000000 ei 0.000 es 0.000 et 0.000 er 0.000] ------- [0:255 -1:255 30 0] [0x2 1 1 [3 0] [0 4]] (REQUEST)
N -t 0.100295 -n 3 -e 59.899556
N -t 0.100295 -n 15 -e 59.899556
N -t 0.100295 -n 35 -e 59.899556
N -t 0.100295 -n 18 -e 59.899556
N -t 0.100295 -n 25 -e 59.899556
N -t 0.100295 -n 1 -e 59.899556
N -t 0.100295 -n 5 -e 59.899556
N -t 0.100295 -n 8 -e 59.899556
N -t 0.100295 -n 16 -e 59.899556
N -t 0.100295 -n 6 -e 59.899556
N -t 0.100296 -n 36 -e 59.899556
N -t 0.100296 -n 38 -e 59.899556
N -t 0.100296 -n 2 -e 59.899556
N -t 0.100296 -n 10 -e 59.899556
N -t 0.100296 -n 13 -e 59.899556
N -t 0.100296 -n 17 -e 59.899556
N -t 0.100296 -n 7 -e 59.899556
N -t 0.100296 -n 11 -e 59.899556
N -t 0.100296 -n 33 -e 59.899556
N -t 0.100296 -n 12 -e 59.899556
N -t 0.100296 -n 39 -e 59.899556
N -t 0.100296 -n 37 -e 59.899555
N -t 0.100296 -n 32 -e 59.899555
N -t 0.100296 -n 31 -e 59.899555
N -t 0.100296 -n 4 -e 59.899555
N -t 0.100296 -n 20 -e 59.899555
N -t 0.100296 -n 26 -e 59.899555
N -t 0.100296 -n 19 -e 59.899555
N -t 0.100296 -n 23 -e 59.899555
N -t 0.100296 -n 9 -e 59.899555
N -t 0.100296 -n 21 -e 59.899555
N -t 0.100296 -n 30 -e 59.899555
N -t 0.100296 -n 14 -e 59.899555
N -t 0.100296 -n 22 -e 59.899555
N -t 0.100297 -n 28 -e 59.899555
N -t 0.100297 -n 34 -e 59.899555
N -t 0.100297 -n 29 -e 59.899555
N -t 0.100297 -n 27 -e 59.899555
r 0.101143150 _3_ MAC  --- 0 AODV 48 [0 ffffffff 0 800] [energy 59.899556 ei 0.100 es 0.000 et 0.000 er 0.000] ------- [0:255 -1:255 30 0] [0x2 1 1 [3 0] [0 4]] (REQUEST)
r 0.101143150 _15_ MAC  --- 0 AODV 48 [0 ffffffff 0 800] [energy 59.899556 ei 0.100 es 0.000 et 0.000 er 0.000] ------- [0:255 -1:255 30 0] [0x2 1 1 [3 0] [0 4]] (REQUEST)
r 0.101143166 _35_ MAC  --- 0 AODV 48 [0 ffffffff 0 800] [energy 59.899556 ei 0.100 es 0.000 et 0.000 er 0.000] ------- [0:255 -1:255 30 0] [0x2 1 1 [3 0] [0 4]] (REQUEST)
r 0.101143212 _18_ MAC  --- 0 AODV 48 [0 ffffffff 0 800] [energy 59.899556 ei 0.100 es 0.000 et 0.000 er 0.000] ------- [0:255 -1:255 30 0] [0x2 1 1 [3 0] [0 4]] (REQUEST)
r 0.101143235 _25_ MAC  --- 0 AODV 48 [0 ffffffff 0 800] [energy 59.899556 ei 0.100 es 0.000 et 0.000 er 0.000] ------- [0:255 -1:255 30 0] [0x2 1 1 [3 0] [0 4]] (REQUEST)
r 0.101143333 _1_ MAC  --- 0 AODV 48 [0 ffffffff 0 800] [energy 59.899556 ei 0.100 es 0.000 et 0.000 er 0.000] ------- [0:255 -1:255 30 0] [0x2 1 1 [3 0] [0 4]] (REQUEST)
r 0.101143333 _5_ MAC  --- 0 AODV 48 [0 ffffffff 0 800] [energy 59.899556 ei 0.100 es 0.000 et 0.000 er 0.000] ------- [0:255 -1:255 30 0] [0x2 1 1 [3 0] [0 4]] (REQUEST)
r 0.101143366 _8_ MAC  --- 0 AODV 48 [0 ffffffff 0 800] [energy 59.899556 ei 0.100 es 0.000 et 0.000 er 0.000] ------- [0:255 -1:255 30 0] [0x2 1 1 [3 0] [0 4]] (REQUEST)
r 0.101143366 _16_ MAC  --- 0 AODV 48 [0 ffffffff 0 800] [energy 59.899556 ei 0.100 es 0.000 et 0.000 er 0.000] ------- [0:255 -1:255 30 0] [0x2 1 1 [3 0] [0 4]] (REQUEST)
r 0.101143471 _6_ MAC  --- 0 AODV 48 [0 ffffffff 0 800] [energy 59.899556 ei 0.100 es 0.000 et 0.000 er 0.000] ------- [0:255 -1:255 30 0] [0x2 1 1 [3 0] [0 4]] (REQUEST)
r 0.101143517 _36_ MAC  --- 0 AODV 48 [0 ffffffff 0 800] [energy 59.899556 ei 0.100 es 0.000 et 0.000 er 0.000] ------- [0:255 -1:255 30 0] [0x2 1 1 [3 0] [0 4]] (REQUEST)
r 0.101143599 _38_ MAC  --- 0 AODV 48 [0 ffffffff 0 800] [energy 59.899556 ei 0.100 es 0.000 et 0.000 er 0.000] ------- [0:255 -1:255 30 0] [0x2 1 1 [3 0] [0 4]] (REQUEST)
r 0.101143667 _2_ MAC  --- 0 AODV 48 [0 ffffffff 0 800] [energy 59.899556 ei 0.100 es 0.000 et 0.000 er 0.000] ------- [0:255 -1:255 30 0] [0x2 1 1 [3 0] [0 4]] (REQUEST)
r 0.101143667 _10_ MAC  --- 0 AODV 48 [0 ffffffff 0 800] [energy 59.899556 ei 0.100 es 0.000 et 0.000 er 0.000] ------- [0:255 -1:255 30 0] [0x2 1 1 [3 0] [0 4]] (REQUEST)
r 0.101143683 _13_ MAC  --- 0 AODV 48 [0 ffffffff 0 800] [energy 59.899556 ei 0.100 es 0.000 et 0.000 er 0.000] ------- [0:255 -1:255 30 0] [0x2 1 1 [3 0] [0 4]] (REQUEST)
r 0.101143683 _17_ MAC  --- 0 AODV 48 [0 ffffffff 0 800] [energy 59.899556 ei 0.100 es 0.000 et 0.000 er 0.000] ------- [0:255 -1:255 30 0] [0x2 1 1 [3 0] [0 4]] (REQUEST)
r 0.101143745 _7_ MAC  --- 0 AODV 48 [0 ffffffff 0 800] [energy 59.899556 ei 0.100 es 0.000 et 0.000 er 0.000] ------- [0:255 -1:255 30 0] [0x2 1 1 [3 0] [0 4]] (REQUEST)
r 0.101143745 _11_ MAC  --- 0 AODV 48 [0 ffffffff 0 800] [energy 59.899556 ei 0.100 es 0.000 et 0.000 er 0.000] ------- [0:255 -1:255 30 0] [0x2 1 1 [3 0] [0 4]] (REQUEST)
r 0.101143765 _33_ MAC  --- 0 AODV 48 [0 ffffffff 0 800] [energy 59.899556 ei 0.100 es 0.000 et 0.000 er 0.000] ------- [0:255 -1:255 30 0] [0x2 1 1 [3 0] [0 4]] (REQUEST)
r 0.101168150 _3_ RTR  --- 0 AODV 48 [0 ffffffff 0 800] [energy 59.899556 ei 0.100 es 0.000 et 0.000 er 0.000] ------- [0:255 -1:255 30 0] [0x2 1 1 [3 0] [0 4]] (REQUEST)
r 0.101168150 _15_ RTR  --- 0 AODV 48 [0 ffffffff 0 800] [energy 59.899556 ei 0.100 es 0.000 et 0.000 er 0.000] ------- [0:255 -1:255 30 0] [0x2 1 1 [3 0] [0 4]] (REQUEST)
s 0.101168150 _3_ RTR  --- 0 AODV 44 [0 0 0 0] [energy 59.899556 ei 0.100 es 0.000 et 0.000 er 0.000] ------- [3:255 0:255 30 0] [0x4 1 [3 4] 10.000000] (REPLY)
r 0.101168166 _35_ RTR  --- 0 AODV 48 [0 ffffffff 0 800] [energy 59.899556 ei 0.100 es 0.000 et 0.000 er 0.000] ------- [0:255 -1:255 30 0] [0x2 1 1 [3 0] [0 4]] (REQUEST)
r 0.101168212 _18_ RTR  --- 0 AODV 48 [0 ffffffff 0 800] [energy 59.899556 ei 0.100 es 0.000 et 0.000 er 0.000] ------- [0:255 -1:255 30 0] [0x2 1 1 [3 0] [0 4]] (REQUEST)
r 0.101168235 _25_ RTR  --- 0 AODV 48 [0 ffffffff 0 800] [energy 59.899556 ei 0.100 es 0.000 et 0.000 er 0.000] ------- [0:255 -1:255 30 0] [0x2 1 1 [3 0] [0 4]] (REQUEST)
r 0.101168333 _1_ RTR  --- 0 AODV 48 [0 ffffffff 0 800] [energy 59.899556 ei 0.100 es 0.000 et 0.000 er 0.000] ------- [0:255 -1:255 30 0] [0x2 1 1 [3 0] [0 4]] (REQUEST)
r 0.101168333 _5_ RTR  --- 0 AODV 48 [0 ffffffff 0 800] [energy 59.899556 ei 0.100 es 0.000 et 0.000 er 0.000] ------- [0:255 -1:255 30 0] [0x2 1 1 [3 0] [0 4]] (REQUEST)
r 0.101168366 _8_ RTR  --- 0 AODV 48 [0 ffffffff 0 800] [energy 59.899556 ei 0.100 es 0.000 et 0.000 er 0.000] ------- [0:255 -1:255 30 0] [0x2 1 1 [3 0] [0 4]] (REQUEST)
r 0.101168366 _16_ RTR  --- 0 AODV 48 [0 ffffffff 0 800] [energy 59.899556 ei 0.100 es 0.000 et 0.000 er 0.000] ------- [0:255 -1:255 30 0] [0x2 1 1 [3 0] [0 4]] (REQUEST)
r 0.101168471 _6_ RTR  --- 0 AODV 48 [0 ffffffff 0 800] [energy 59.899556 ei 0.100 es 0.000 et 0.000 er 0.000] ------- [0:255 -1:255 30 0] [0x2 1 1 [3 0] [0 4]] (REQUEST)
r 0.101168517 _36_ RTR  --- 0 AODV 48 [0 ffffffff 0 800] [energy 59.899556 ei 0.100 es 0.000 et 0.000 er 0.000] ------- [0:255 -1:255 30 0] [0x2 1 1 [3 0] [0 4]] (REQUEST)
r 0.101168599 _38_ RTR  --- 0 AODV 48 [0 ffffffff 0 800] [energy 59.899556 ei 0.100 es 0.000 et 0.000 er 0.000] ------- [0:255 -1:255 30 0] [0x2 1 1 [3 0] [0 4]] (REQUEST)
r 0.101168667 _2_ RTR  --- 0 AODV 48 [0 ffffffff 0 800] [energy 59.899556 ei 0.100 es 0.000 et 0.000 er 0.000] ------- [0:255 -1:255 30 0] [0x2 1 1 [3 0] [0 4]] (REQUEST)
r 0.101168667 _10_ RTR  --- 0 AODV 48 [0 ffffffff 0 800] [energy 59.899556 ei 0.100 es 0.000 et 0.000 er 0.000] ------- [0:255 -1:255 30 0] [0x2 1 1 [3 0] [0 4]] (REQUEST)
r 0.101168683 _13_ RTR  --- 0 AODV 48 [0 ffffffff 0 800] [energy 59.899556 ei 0.100 es 0.000 et 0.000 er 0.000] ------- [0:255 -1:255 30 0] [0x2 1 1 [3 0] [0 4]] (REQUEST)
r 0.101168683 _17_ RTR  --- 0 AODV 48 [0 ffffffff 0 800] [energy 59.899556 ei 0.100 es 0.000 et 0.000 er 0.000] ------- [0:255 -1:255 30 0] [0x2 1 1 [3 0] [0 4]] (REQUEST)
r 0.101168745 _7_ RTR  --- 0 AODV 48 [0 ffffffff 0 800] [energy 59.899556 ei 0.100 es 0.000 et 0.000 er 0.000] ------- [0:255 -1:255 30 0] [0x2 1 1 [3 0] [0 4]] (REQUEST)
r 0.101168745 _11_ RTR  --- 0 AODV 48 [0 ffffffff 0 800] [energy 59.899556 ei 0.100 es 0.000 et 0.000 er 0.000] ------- [0:255 -1:255 30 0] [0x2 1 1 [3 0] [0 4]] (REQUEST)
r 0.101168765 _33_ RTR  --- 0 AODV 48 [0 ffffffff 0 800] [energy 59.899556 ei 0.100 es 0.000 et 0.000 er 0.000] ------- [0:255 -1:255 30 0] [0x2 1 1 [3 0] [0 4]] (REQUEST)
s 0.101276296 _18_ RTR  --- 0 AODV 48 [0 ffffffff 0 800] [energy 59.899556 ei 0.100 es 0.000 et 0.000 er 0.000] ------- [18:255 -1:255 29 0] [0x2 2 1 [3 0] [0 4]] (REQUEST)
s 0.101444258 _17_ RTR  --- 0 AODV 48 [0 ffffffff 0 800] [energy 59.899556 ei 0.100 es 0.000 et 0.000 er 0.000] ------- [17:255 -1:255 29 0] [0x2 2 1 [3 0] [0 4]] (REQUEST)
s 0.101523150 _3_ MAC  --- 0 ARP 86 [0 ffffffff 3 806] [energy 59.899556 ei 0.100 es 0.000 et 0.000 er 0.000] ------- [REQUEST 3/3 0/0]
N -t 0.101523 -n 35 -e 59.899056
N -t 0.101523 -n 18 -e 59.899056
N -t 0.101523 -n 0 -e 59.899056
N -t 0.101523 -n 25 -e 59.899056
N -t 0.101523 -n 15 -e 59.899056
N -t 0.101523 -n 8 -e 59.899056
N -t 0.101524 -n 5 -e 59.899056
N -t 0.101524 -n 1 -e 59.899056
N -t 0.101524 -n 36 -e 59.899056
N -t 0.101524 -n 16 -e 59.899056
N -t 0.101524 -n 38 -e 59.899055
N -t 0.101524 -n 6 -e 59.899055
N -t 0.101524 -n 13 -e 59.899055
N -t 0.101524 -n 10 -e 59.899055
N -t 0.101524 -n 33 -e 59.899055
N -t 0.101524 -n 2 -e 59.899055
N -t 0.101524 -n 11 -e 59.899055
N -t 0.101524 -n 17 -e 59.899055
N -t 0.101524 -n 7 -e 59.899055
N -t 0.101524 -n 12 -e 59.899055
N -t 0.101524 -n 39 -e 59.899055
N -t 0.101524 -n 37 -e 59.899055
N -t 0.101524 -n 23 -e 59.899055
N -t 0.101524 -n 26 -e 59.899055
N -t 0.101524 -n 31 -e 59.899055
N -t 0.101524 -n 20 -e 59.899055
N -t 0.101525 -n 32 -e 59.899055
N -t 0.101525 -n 21 -e 59.899055
N -t 0.101525 -n 30 -e 59.899055
N -t 0.101525 -n 4 -e 59.899055
N -t 0.101525 -n 19 -e 59.899055
N -t 0.101525 -n 28 -e 59.899055
N -t 0.101525 -n 9 -e 59.899055
N -t 0.101525 -n 22 -e 59.899054
N -t 0.101525 -n 29 -e 59.899054
N -t 0.101525 -n 14 -e 59.899054
N -t 0.101525 -n 34 -e 59.899054
N -t 0.101525 -n 27 -e 59.899054
s 0.101752193 _35_ RTR  --- 0 AODV 48 [0 ffffffff 0 800] [energy 59.899056 ei 0.101 es 0.000 et 0.000 er 0.000] ------- [35:255 -1:255 29 0] [0x2 2 1 [3 0] [0 4]] (REQUEST)
r 0.102211166 _35_ MAC  --- 0 ARP 28 [0 ffffffff 3 806] [energy 59.899056 ei 0.101 es 0.000 et 0.000 er 0.000] ------- [REQUEST 3/3 0/0]
r 0.102211300 _18_ MAC  --- 0 ARP 28 [0 ffffffff 3 806] [energy 59.899056 ei 0.101 es 0.000 et 0.000 er 0.000] ------- [REQUEST 3/3 0/0]
r 0.102211300 _0_ MAC  --- 0 ARP 28 [0 ffffffff 3 806] [energy 59.899056 ei 0.101 es 0.000 et 0.000 er 0.000] ------- [REQUEST 3/3 0/0]
r 0.102211317 _25_ MAC  --- 0 ARP 28 [0 ffffffff 3 806] [energy 59.899056 ei 0.101 es 0.000 et 0.000 er 0.000] ------- [REQUEST 3/3 0/0]
r 0.102211362 _15_ MAC  --- 0 ARP 28 [0 ffffffff 3 806] [energy 59.899056 ei 0.101 es 0.000 et 0.000 er 0.000] ------- [REQUEST 3/3 0/0]
r 0.102211483 _8_ MAC  --- 0 ARP 28 [0 ffffffff 3 806] [energy 59.899056 ei 0.101 es 0.000 et 0.000 er 0.000] ------- [REQUEST 3/3 0/0]
r 0.102211516 _5_ MAC  --- 0 ARP 28 [0 ffffffff 3 806] [energy 59.899056 ei 0.101 es 0.000 et 0.000 er 0.000] ------- [REQUEST 3/3 0/0]
r 0.102211633 _1_ MAC  --- 0 ARP 28 [0 ffffffff 3 806] [energy 59.899056 ei 0.101 es 0.000 et 0.000 er 0.000] ------- [REQUEST 3/3 0/0]
r 0.102211650 _36_ MAC  --- 0 ARP 28 [0 ffffffff 3 806] [energy 59.899056 ei 0.101 es 0.000 et 0.000 er 0.000] ------- [REQUEST 3/3 0/0]
r 0.102211656 _16_ MAC  --- 0 ARP 28 [0 ffffffff 3 806] [energy 59.899056 ei 0.101 es 0.000 et 0.000 er 0.000] ------- [REQUEST 3/3 0/0]
r 0.102211730 _38_ MAC  --- 0 ARP 28 [0 ffffffff 3 806] [energy 59.899055 ei 0.101 es 0.000 et 0.000 er 0.000] ------- [REQUEST 3/3 0/0]
r 0.102211737 _6_ MAC  --- 0 ARP 28 [0 ffffffff 3 806] [energy 59.899055 ei 0.101 es 0.000 et 0.000 er 0.000] ------- [REQUEST 3/3 0/0]
r 0.102211817 _13_ MAC  --- 0 ARP 28 [0 ffffffff 3 806] [energy 59.899055 ei 0.101 es 0.000 et 0.000 er 0.000] ------- [REQUEST 3/3 0/0]
r 0.102211833 _10_ MAC  --- 0 ARP 28 [0 ffffffff 3 806] [energy 59.899055 ei 0.101 es 0.000 et 0.000 er 0.000] ------- [REQUEST 3/3 0/0]
r 0.102211900 _33_ MAC  --- 0 ARP 28 [0 ffffffff 3 806] [energy 59.899055 ei 0.101 es 0.000 et 0.000 er 0.000] ------- [REQUEST 3/3 0/0]
r 0.102211967 _2_ MAC  --- 0 ARP 28 [0 ffffffff 3 806] [energy 59.899055 ei 0.101 es 0.000 et 0.000 er 0.000] ------- [REQUEST 3/3 0/0]
r 0.102211973 _11_ MAC  --- 0 ARP 28 [0 ffffffff 3 806] [energy 59.899055 ei 0.101 es 0.000 et 0.000 er 0.000] ------- [REQUEST 3/3 0/0]
r 0.102211980 _17_ MAC  --- 0 ARP 28 [0 ffffffff 3 806] [energy 59.899055 ei 0.101 es 0.000 et 0.000 er 0.000] ------- [REQUEST 3/3 0/0]
s 0.102281980 _17_ MAC  --- 0 AODV 106 [0 ffffffff 11 800] [energy 59.899055 ei 0.101 es 0.000 et 0.000 er 0.000] ------- [17:255 -1:255 29 0] [0x2 2 1 [3 0] [0 4]] (REQUEST)
N -t 0.102282 -n 2 -e 59.898837
N -t 0.102282 -n 16 -e 59.898836
N -t 0.102282 -n 1 -e 59.898836
N -t 0.102282 -n 7 -e 59.898836
N -t 0.102283 -n 6 -e 59.898836
N -t 0.102283 -n 19 -e 59.898836
N -t 0.102283 -n 15 -e 59.898836
N -t 0.102283 -n 4 -e 59.898836
N -t 0.102283 -n 0 -e 59.898836
N -t 0.102283 -n 18 -e 59.898836
N -t 0.102283 -n 12 -e 59.898836
N -t 0.102283 -n 9 -e 59.898836
N -t 0.102283 -n 5 -e 59.898836
N -t 0.102283 -n 3 -e 59.898836
N -t 0.102283 -n 25 -e 59.898836
N -t 0.102283 -n 35 -e 59.898836
N -t 0.102283 -n 11 -e 59.898836
N -t 0.102283 -n 8 -e 59.898836
N -t 0.102283 -n 36 -e 59.898836
N -t 0.102283 -n 14 -e 59.898836
N -t 0.102283 -n 10 -e 59.898836
N -t 0.102283 -n 37 -e 59.898836
N -t 0.102283 -n 38 -e 59.898836
N -t 0.102283 -n 34 -e 59.898836
N -t 0.102283 -n 13 -e 59.898836
N -t 0.102283 -n 39 -e 59.898836
N -t 0.102283 -n 33 -e 59.898836
N -t 0.102283 -n 32 -e 59.898836
N -t 0.102283 -n 31 -e 59.898835
N -t 0.102283 -n 22 -e 59.898835
N -t 0.102284 -n 21 -e 59.898835
N -t 0.102284 -n 24 -e 59.897568
N -t 0.102284 -n 20 -e 59.898835
N -t 0.102284 -n 27 -e 59.898835
N -t 0.102284 -n 29 -e 59.898835
N -t 0.102284 -n 26 -e 59.898835
N -t 0.102284 -n 23 -e 59.898835
N -t 0.102284 -n 30 -e 59.898835
s 0.102288463 _15_ RTR  --- 0 AODV 48 [0 ffffffff 0 800] [energy 59.898836 ei 0.101 es 0.000 et 0.000 er 0.000] ------- [15:255 -1:255 29 0] [0x2 2 1 [3 0] [0 4]] (REQUEST)
s 0.102399368 _5_ RTR  --- 0 AODV 48 [0 ffffffff 0 800] [energy 59.898836 ei 0.101 es 0.000 et 0.000 er 0.000] ------- [5:255 -1:255 29 0] [0x2 2 1 [3 0] [0 4]] (REQUEST)
s 0.103030888 _11_ RTR  --- 0 AODV 48 [0 ffffffff 0 800] [energy 59.898836 ei 0.101 es 0.000 et 0.000 er 0.000] ------- [11:255 -1:255 29 0] [0x2 2 1 [3 0] [0 4]] (REQUEST)
r 0.103130130 _2_ MAC  --- 0 AODV 48 [0 ffffffff 11 800] [energy 59.898837 ei 0.101 es 0.000 et 0.000 er 0.000] ------- [17:255 -1:255 29 0] [0x2 2 1 [3 0] [0 4]] (REQUEST)
r 0.103130314 _16_ MAC  --- 0 AODV 48 [0 ffffffff 11 800] [energy 59.898836 ei 0.101 es 0.000 et 0.000 er 0.000] ------- [17:255 -1:255 29 0] [0x2 2 1 [3 0] [0 4]] (REQUEST)
r 0.103130346 _1_ MAC  --- 0 AODV 48 [0 ffffffff 11 800] [energy 59.898836 ei 0.101 es 0.000 et 0.000 er 0.000] ------- [17:255 -1:255 29 0] [0x2 2 1 [3 0] [0 4]] (REQUEST)
r 0.103130464 _7_ MAC  --- 0 AODV 48 [0 ffffffff 11 800] [energy 59.898836 ei 0.101 es 0.000 et 0.000 er 0.000] ------- [17:255 -1:255 29 0] [0x2 2 1 [3 0] [0 4]] (REQUEST)
r 0.103130567 _6_ MAC  --- 0 AODV 48 [0 ffffffff 11 800] [energy 59.898836 ei 0.101 es 0.000 et 0.000 er 0.000] ------- [17:255 -1:255 29 0] [0x2 2 1 [3 0] [0 4]] (REQUEST)
r 0.103130647 _19_ MAC  --- 0 AODV 48 [0 ffffffff 11 800] [energy 59.898836 ei 0.101 es 0.000 et 0.000 er 0.000] ------- [17:255 -1:255 29 0] [0x2 2 1 [3 0] [0 4]] (REQUEST)
r 0.103130647 _15_ MAC  --- 0 AODV 48 [0 ffffffff 11 800] [energy 59.898836 ei 0.101 es 0.000 et 0.000 er 0.000] ------- [17:255 -1:255 29 0] [0x2 2 1 [3 0] [0 4]] (REQUEST)
r 0.103130664 _4_ MAC  --- 0 AODV 48 [0 ffffffff 11 800] [energy 59.898836 ei 0.101 es 0.000 et 0.000 er 0.000] ------- [17:255 -1:255 29 0] [0x2 2 1 [3 0] [0 4]] (REQUEST)
r 0.103130664 _0_ MAC  --- 0 AODV 48 [0 ffffffff 11 800] [energy 59.898836 ei 0.101 es 0.000 et 0.000 er 0.000] ------- [17:255 -1:255 29 0] [0x2 2 1 [3 0] [0 4]] (REQUEST)
r 0.103130797 _18_ MAC  --- 0 AODV 48 [0 ffffffff 11 800] [energy 59.898836 ei 0.101 es 0.000 et 0.000 er 0.000] ------- [17:255 -1:255 29 0] [0x2 2 1 [3 0] [0 4]] (REQUEST)
r 0.103130797 _12_ MAC  --- 0 AODV 48 [0 ffffffff 11 800] [energy 59.898836 ei 0.101 es 0.000 et 0.000 er 0.000] ------- [17:255 -1:255 29 0] [0x2 2 1 [3 0] [0 4]] (REQUEST)
r 0.103130804 _9_ MAC  --- 0 AODV 48 [0 ffffffff 11 800] [energy 59.898836 ei 0.101 es 0.000 et 0.000 er 0.000] ------- [17:255 -1:255 29 0] [0x2 2 1 [3 0] [0 4]] (REQUEST)
r 0.103130804 _5_ MAC  --- 0 AODV 48 [0 ffffffff 11 800] [energy 59.898836 ei 0.101 es 0.000 et 0.000 er 0.000] ------- [17:255 -1:255 29 0] [0x2 2 1 [3 0] [0 4]] (REQUEST)
r 0.103130811 _3_ MAC  --- 0 AODV 48 [0 ffffffff 11 800] [energy 59.898836 ei 0.101 es 0.000 et 0.000 er 0.000] ------- [17:255 -1:255 29 0] [0x2 2 1 [3 0] [0 4]] (REQUEST)
r 0.103130813 _25_ MAC  --- 0 AODV 48 [0 ffffffff 11 800] [energy 59.898836 ei 0.101 es 0.000 et 0.000 er 0.000] ------- [17:255 -1:255 29 0] [0x2 2 1 [3 0] [0 4]] (REQUEST)
r 0.103155130 _2_ RTR  --- 0 AODV 48 [0 ffffffff 11 800] [energy 59.898837 ei 0.101 es 0.000 et 0.000 er 0.000] ------- [17:255 -1:255 29 0] [0x2 2 1 [3 0] [0 4]] (REQUEST)
r 0.103155314 _16_ RTR  --- 0 AODV 48 [0 ffffffff 11 800] [energy 59.898836 ei 0.101 es 0.000 et 0.000 er 0.000] ------- [17:255 -1:255 29 0] [0x2 2 1 [3 0] [0 4]] (REQUEST)
r 0.103155346 _1_ RTR  --- 0 AODV 48 [0 ffffffff 11 800] [energy 59.898836 ei 0.101 es 0.000 et 0.000 er 0.000] ------- [17:255 -1:255 29 0] [0x2 2 1 [3 0] [0 4]] (REQUEST)
r 0.103155464 _7_ RTR  --- 0 AODV 48 [0 ffffffff 11 800] [energy 59.898836 ei 0.101 es 0.000 et 0.000 er 0.000] ------- [17:255 -1:255 29 0] [0x2 2 1 [3 0] [0 4]] (REQUEST)
r 0.103155567 _6_ RTR  --- 0 AODV 48 [0 ffffffff 11 800] [energy 59.898836 ei 0.101 es 0.000 et 0.000 er 0.000] ------- [17:255 -1:255 29 0] [0x2 2 1 [3 0] [0 4]] (REQUEST)
r 0.103155647 _19_ RTR  --- 0 AODV 48 [0 ffffffff 11 800] [energy 59.898836 ei 0.101 es 0.000 et 0.000 er 0.000] ------- [17:255 -1:255 29 0] [0x2 2 1 [3 0] [0 4]] (REQUEST)
r 0.103155647 _15_ RTR  --- 0 AODV 48 [0 ffffffff 11 800] [energy 59.898836 ei 0.101 es 0.000 et 0.000 er 0.000] ------- [17:255 -1:255 29 0] [0x2 2 1 [3 0] [0 4]] (REQUEST)
r 0.103155664 _4_ RTR  --- 0 AODV 48 [0 ffffffff 11 800] [energy 59.898836 ei 0.101 es 0.000 et 0.000 er 0.000] ------- [17:255 -1:255 29 0] [0x2 2 1 [3 0] [0 4]] (REQUEST)
r 0.103155664 _0_ RTR  --- 0 AODV 48 [0 ffffffff 11 800] [energy 59.898836 ei 0.101 es 0.000 et 0.000 er 0.000] ------- [17:255 -1:255 29 0] [0x2 2 1 [3 0] [0 4]] (REQUEST)
r 0.103155797 _18_ RTR  --- 0 AODV 48 [0 ffffffff 11 800] [energy 59.898836 ei 0.101 es 0.000 et 0.000 er 0.000] ------- [17:255 -1:255 29 0] [0x2 2 1 [3 0] [0 4]] (REQUEST)
r 0.103155797 _12_ RTR  --- 0 AODV 48 [0 ffffffff 11 800] [energy 59.898836 ei 0.101 es 0.000 et 0.000 er 0.000] ------- [17:255 -1:255 29 0] [0x2 2 1 [3 0] [0 4]] (REQUEST)
r 0.103155804 _9_ RTR  --- 0 AODV 48 [0 ffffffff 11 800] [energy 59.898836 ei 0.101 es 0.000 et 0.000 er 0.000] ------- [17:255 -1:255 29 0] [0x2 2 1 [3 0] [0 4]] (REQUEST)
r 0.103155804 _5_ RTR  --- 0 AODV 48 [0 ffffffff 11 800] [energy 59.898836 ei 0.101 es 0.000 et 0.000 er 0.000] ------- [17:255 -1:255 29 0] [0x2 2 1 [3 0] [0 4]] (REQUEST)
r 0.103155811 _3_ RTR  --- 0 AODV 48 [0 ffffffff 11 800] [energy 59.898836 ei 0.101 es 0.000 et 0.000 er 0.000] ------- [17:255 -1:255 29 0] [0x2 2 1 [3 0] [0 4]] (REQUEST)
r 0.103155813 _25_ RTR  --- 0 AODV 48 [0 ffffffff 11 800] [energy 59.898836 ei 0.101 es 0.000 et 0.000 er 0.000] ------- [17:255 -1:255 29 0] [0x2 2 1 [3 0] [0 4]] (REQUEST)
s 0.103220804 _5_ MAC  --- 0 AODV 106 [0 ffffffff 5 800] [energy 59.898836 ei 0.101 es 0.000 et 0.000 er 0.000] ------- [5:255 -1:255 29 0] [0x2 2 1 [3 0] [0 4]] (REQUEST)
N -t 0.103221 -n 8 -e 59.898597
N -t 0.103221 -n 36 -e 59.898597
N -t 0.103221 -n 38 -e 59.898597
N -t 0.103221 -n 6 -e 59.898597
N -t 0.103221 -n 0 -e 59.898597
N -t 0.103221 -n 10 -e 59.898597
N -t 0.103221 -n 3 -e 59.898597
N -t 0.103221 -n 13 -e 59.898597
N -t 0.103221 -n 35 -e 59.898597
N -t 0.103221 -n 33 -e 59.898597
N -t 0.103221 -n 1 -e 59.898597
N -t 0.103221 -n 11 -e 59.898597
N -t 0.103221 -n 15 -e 59.898597
N -t 0.103221 -n 18 -e 59.898597
N -t 0.103221 -n 25 -e 59.898597
N -t 0.103221 -n 16 -e 59.898597
N -t 0.103221 -n 7 -e 59.898597
N -t 0.103222 -n 39 -e 59.898597
N -t 0.103222 -n 2 -e 59.898597
N -t 0.103222 -n 12 -e 59.898597
N -t 0.103222 -n 17 -e 59.898597
N -t 0.103222 -n 37 -e 59.898597
N -t 0.103222 -n 31 -e 59.898597
N -t 0.103222 -n 20 -e 59.898597
N -t 0.103222 -n 32 -e 59.898597
N -t 0.103222 -n 26 -e 59.898597
N -t 0.103222 -n 23 -e 59.898597
N -t 0.103222 -n 21 -e 59.898597
N -t 0.103222 -n 30 -e 59.898597
N -t 0.103222 -n 28 -e 59.897897
N -t 0.103222 -n 22 -e 59.898596
N -t 0.103222 -n 29 -e 59.898596
N -t 0.103222 -n 9 -e 59.898596
N -t 0.103222 -n 27 -e 59.898596
N -t 0.103222 -n 4 -e 59.898596
N -t 0.103222 -n 14 -e 59.898596
N -t 0.103222 -n 34 -e 59.898596
N -t 0.103222 -n 19 -e 59.898596
N -t 0.103222 -n 24 -e 59.897329
s 0.103738303 _16_ RTR  --- 0 AODV 48 [0 ffffffff 0 800] [energy 59.898597 ei 0.101 es 0.000 et 0.000 er 0.001] ------- [16:255 -1:255 29 0] [0x2 2 1 [3 0] [0 4]] (REQUEST)
s 0.103786908 _2_ RTR  --- 0 AODV 48 [0 ffffffff 0 800] [energy 59.898597 ei 0.101 es 0.000 et 0.000 er 0.001] ------- [2:255 -1:255 29 0] [0x2 2 1 [3 0] [0 4]] (REQUEST)
s 0.104037805 _9_ RTR  --- 0 AODV 48 [0 ffffffff 11 800] [energy 59.898596 ei 0.101 es 0.000 et 0.000 er 0.001] ------- [9:255 -1:255 28 0] [0x2 3 1 [3 0] [0 4]] (REQUEST)
r 0.104068954 _8_ MAC  --- 0 AODV 48 [0 ffffffff 5 800] [energy 59.898597 ei 0.101 es 0.000 et 0.000 er 0.001] ------- [5:255 -1:255 29 0] [0x2 2 1 [3 0] [0 4]] (REQUEST)
r 0.104069017 _36_ MAC  --- 0 AODV 48 [0 ffffffff 5 800] [energy 59.898597 ei 0.101 es 0.000 et 0.000 er 0.001] ------- [5:255 -1:255 29 0] [0x2 2 1 [3 0] [0 4]] (REQUEST)
r 0.104069092 _38_ MAC  --- 0 AODV 48 [0 ffffffff 5 800] [energy 59.898597 ei 0.101 es 0.000 et 0.000 er 0.001] ------- [5:255 -1:255 29 0] [0x2 2 1 [3 0] [0 4]] (REQUEST)
r 0.104069137 _6_ MAC  --- 0 AODV 48 [0 ffffffff 5 800] [energy 59.898597 ei 0.101 es 0.000 et 0.000 er 0.001] ------- [5:255 -1:255 29 0] [0x2 2 1 [3 0] [0 4]] (REQUEST)
r 0.104069137 _0_ MAC  --- 0 AODV 48 [0 ffffffff 5 800] [energy 59.898597 ei 0.101 es 0.000 et 0.000 er 0.000] ------- [5:255 -1:255 29 0] [0x2 2 1 [3 0] [0 4]] (REQUEST)
r 0.104069137 _10_ MAC  --- 0 AODV 48 [0 ffffffff 5 800] [energy 59.898597 ei 0.101 es 0.000 et 0.000 er 0.001] ------- [5:255 -1:255 29 0] [0x2 2 1 [3 0] [0 4]] (REQUEST)
r 0.104069169 _3_ MAC  --- 0 AODV 48 [0 ffffffff 5 800] [energy 59.898597 ei 0.101 es 0.000 et 0.000 er 0.000] ------- [5:255 -1:255 29 0] [0x2 2 1 [3 0] [0 4]] (REQUEST)
r 0.104069169 _13_ MAC  --- 0 AODV 48 [0 ffffffff 5 800] [energy 59.898597 ei 0.101 es 0.000 et 0.000 er 0.001] ------- [5:255 -1:255 29 0] [0x2 2 1 [3 0] [0 4]] (REQUEST)
r 0.104069176 _35_ MAC  --- 0 AODV 48 [0 ffffffff 5 800] [energy 59.898597 ei 0.101 es 0.000 et 0.000 er 0.001] ------- [5:255 -1:255 29 0] [0x2 2 1 [3 0] [0 4]] (REQUEST)
r 0.104069247 _33_ MAC  --- 0 AODV 48 [0 ffffffff 5 800] [energy 59.898597 ei 0.101 es 0.000 et 0.000 er 0.001] ------- [5:255 -1:255 29 0] [0x2 2 1 [3 0] [0 4]] (REQUEST)
r 0.104069275 _1_ MAC  --- 0 AODV 48 [0 ffffffff 5 800] [energy 59.898597 ei 0.101 es 0.000 et 0.000 er 0.001] ------- [5:255 -1:255 29 0] [0x2 2 1 [3 0] [0 4]] (REQUEST)
r 0.104069275 _11_ MAC  --- 0 AODV 48 [0 ffffffff 5 800] [energy 59.898597 ei 0.101 es 0.000 et 0.000 er 0.001] ------- [5:255 -1:255 29 0] [0x2 2 1 [3 0] [0 4]] (REQUEST)
r 0.104069287 _15_ MAC  --- 0 AODV 48 [0 ffffffff 5 800] [energy 59.898597 ei 0.101 es 0.000 et 0.000 er 0.001] ------- [5:255 -1:255 29 0] [0x2 2 1 [3 0] [0 4]] (REQUEST)
r 0.104069310 _18_ MAC  --- 0 AODV 48 [0 ffffffff 5 800] [energy 59.898597 ei 0.101 es 0.000 et 0.000 er 0.001] ------- [5:255 -1:255 29 0] [0x2 2 1 [3 0] [0 4]] (REQUEST)
r 0.104069330 _25_ MAC  --- 0 AODV 48 [0 ffffffff 5 800] [energy 59.898597 ei 0.101 es 0.000 et 0.000 er 0.001] ------- [5:255 -1:255 29 0] [0x2 2 1 [3 0] [0 4]] (REQUEST)
r 0.104069391 _16_ MAC  --- 0 AODV 48 [0 ffffffff 5 800] [energy 59.898597 ei 0.101 es 0.000 et 0.000 er 0.001] ------- [5:255 -1:255 29 0] [0x2 2 1 [3 0] [0 4]] (REQUEST)
r 0.104069470 _7_ MAC  --- 0 AODV 48 [0 ffffffff 5 800] [energy 59.898597 ei 0.101 es 0.000 et 0.000 er 0.001] ------- [5:255 -1:255 29 0] [0x2 2 1 [3 0] [0 4]] (REQUEST)
r 0.104069546 _39_ MAC  --- 0 AODV 48 [0 ffffffff 5 800] [energy 59.898597 ei 0.101 es 0.000 et 0.000 er 0.001] ------- [5:255 -1:255 29 0] [0x2 2 1 [3 0] [0 4]] (REQUEST)
r 0.104069549 _2_ MAC  --- 0 AODV 48 [0 ffffffff 5 800] [energy 59.898597 ei 0.101 es 0.000 et 0.000 er 0.001] ------- [5:255 -1:255 29 0] [0x2 2 1 [3 0] [0 4]] (REQUEST)
r 0.104069549 _12_ MAC  --- 0 AODV 48 [0 ffffffff 5 800] [energy 59.898597 ei 0.101 es 0.000 et 0.000 er 0.001] ------- [5:255 -1:255 29 0] [0x2 2 1 [3 0] [0 4]] (REQUEST)
r 0.104069627 _17_ MAC  --- 0 AODV 48 [0 ffffffff 5 800] [energy 59.898597 ei 0.101 es 0.000 et 0.000 er 0.000] ------- [5:255 -1:255 29 0] [0x2 2 1 [3 0] [0 4]] (REQUEST)
r 0.104093954 _8_ RTR  --- 0 AODV 48 [0 ffffffff 5 800] [energy 59.898597 ei 0.101 es 0.000 et 0.000 er 0.001] ------- [5:255 -1:255 29 0] [0x2 2 1 [3 0] [0 4]] (REQUEST)
r 0.104094017 _36_ RTR  --- 0 AODV 48 [0 ffffffff 5 800] [energy 59.898597 ei 0.101 es 0.000 et 0.000 er 0.001] ------- [5:255 -1:255 29 0] [0x2 2 1 [3 0] [0 4]] (REQUEST)
r 0.104094092 _38_ RTR  --- 0 AODV 48 [0 ffffffff 5 800] [energy 59.898597 ei 0.101 es 0.000 et 0.000 er 0.001] ------- [5:255 -1:255 29 0] [0x2 2 1 [3 0] [0 4]] (REQUEST)
r 0.104094137 _6_ RTR  --- 0 AODV 48 [0 ffffffff 5 800] [energy 59.898597 ei 0.101 es 0.000 et 0.000 er 0.001] ------- [5:255 -1:255 29 0] [0x2 2 1 [3 0] [0 4]] (REQUEST)
r 0.104094137 _0_ RTR  --- 0 AODV 48 [0 ffffffff 5 800] [energy 59.898597 ei 0.101 es 0.000 et 0.000 er 0.000] ------- [5:255 -1:255 29 0] [0x2 2 1 [3 0] [0 4]] (REQUEST)
r 0.104094137 _10_ RTR  --- 0 AODV 48 [0 ffffffff 5 800] [energy 59.898597 ei 0.101 es 0.000 et 0.000 er 0.001] ------- [5:255 -1:255 29 0] [0x2 2 1 [3 0] [0 4]] (REQUEST)
r 0.104094169 _3_ RTR  --- 0 AODV 48 [0 ffffffff 5 800] [energy 59.898597 ei 0.101 es 0.000 et 0.000 er 0.000] ------- [5:255 -1:255 29 0] [0x2 2 1 [3 0] [0 4]] (REQUEST)
r 0.104094169 _13_ RTR  --- 0 AODV 48 [0 ffffffff 5 800] [energy 59.898597 ei 0.101 es 0.000 et 0.000 er 0.001] ------- [5:255 -1:255 29 0] [0x2 2 1 [3 0] [0 4]] (REQUEST)
r 0.104094176 _35_ RTR  --- 0 AODV 48 [0 ffffffff 5 800] [energy 59.898597 ei 0.101 es 0.000 et 0.000 er 0.001] ------- [5:255 -1:255 29 0] [0x2 2 1 [3 0] [0 4]] (REQUEST)
r 0.104094247 _33_ RTR  --- 0 AODV 48 [0 ffffffff 5 800] [energy 59.898597 ei 0.101 es 0.000 et 0.000 er 0.001] ------- [5:255 -1:255 29 0] [0x2 2 1 [3 0] [0 4]] (REQUEST)
r 0.104094275 _1_ RTR  --- 0 AODV 48 [0 ffffffff 5 800] [energy 59.898597 ei 0.101 es 0.000 et 0.000 er 0.001] ------- [5:255 -1:255 29 0] [0x2 2 1 [3 0] [0 4]] (REQUEST)