n -t * -s 0  -x 0 -y 0 -Z 0 -z 15+i*10  -v circle -c green
n -t * -s 1  -x 0 -y 0 -Z 0 -z 15+i*10  -v circle -c green
n -t * -s 2  -x 0 -y 0 -Z 0 -z 15+i*10  -v circle -c green
n -t * -s 3  -x 0 -y 0 -Z 0 -z 15+i*10  -v circle -c green
n -t * -s 4  -x 0 -y 0 -Z 0 -z 15+i*10  -v circle -c green
n -t * -s 5  -x 0 -y 0 -Z 0 -z 15+i*10  -v circle -c green
n -t * -s 6  -x 0 -y 0 -Z 0 -z 15+i*10  -v circle -c green
n -t * -s 7  -x 0 -y 0 -Z 0 -z 15+i*10  -v circle -c green
n -t * -s 8  -x 0 -y 0 -Z 0 -z 15+i*10  -v circle -c green
n -t * -s 9  -x 0 -y 0 -Z 0 -z 15+i*10  -v circle -c green
n -t * -s 10  -x 0 -y 0 -Z 0 -z 15+i*10  -v circle -c green
n -t * -s 11  -x 0 -y 0 -Z 0 -z 15+i*10  -v circle -c green
n -t * -s 12  -x 0 -y 0 -Z 0 -z 15+i*10  -v circle -c green
n -t * -s 13  -x 0 -y 0 -Z 0 -z 15+i*10  -v circle -c green
n -t * -s 14  -x 0 -y 0 -Z 0 -z 15+i*10  -v circle -c green
n -t * -s 15  -x 0 -y 0 -Z 0 -z 15+i*10  -v circle -c green
n -t * -s 16  -x 0 -y 0 -Z 0 -z 15+i*10  -v circle -c green
n -t * -s 17  -x 0 -y 0 -Z 0 -z 15+i*10  -v circle -c green
n -t * -s 18  -x 0 -y 0 -Z 0 -z 15+i*10  -v circle -c green
n -t * -s 19  -x 0 -y 0 -Z 0 -z 15+i*10  -v circle -c green
n -t * -s 20  -x 0 -y 0 -Z 0 -z 15+i*10  -v circle -c green
n -t * -s 21  -x 0 -y 0 -Z 0 -z 15+i*10  -v circle -c green
n -t * -s 22  -x 0 -y 0 -Z 0 -z 15+i*10  -v circle -c green
n -t * -s 23  -x 0 -y 0 -Z 0 -z 15+i*10  -v circle -c green
n -t * -s 24  -x 0 -y 0 -Z 0 -z 15+i*10  -v circle -c green
n -t * -s 25  -x 0 -y 0 -Z 0 -z 15+i*10  -v circle -c green
n -t * -s 26  -x 0 -y 0 -Z 0 -z 15+i*10  -v circle -c green
n -t * -s 27  -x 0 -y 0 -Z 0 -z 15+i*10  -v circle -c green
n -t * -s 28  -x 0 -y 0 -Z 0 -z 15+i*10  -v circle -c green
n -t * -s 29  -x 0 -y 0 -Z 0 -z 15+i*10  -v circle -c green
n -t * -s 30  -x 0 -y 0 -Z 0 -z 15+i*10  -v circle -c green
n -t * -s 31  -x 0 -y 0 -Z 0 -z 15+i*10  -v circle -c green
n -t * -s 32  -x 0 -y 0 -Z 0 -z 15+i*10  -v circle -c green
n -t * -s 33  -x 0 -y 0 -Z 0 -z 15+i*10  -v circle -c green
n -t * -s 34  -x 0 -y 0 -Z 0 -z 15+i*10  -v circle -c green
n -t * -s 35  -x 0 -y 0 -Z 0 -z 15+i*10  -v circle -c green
n -t * -s 36  -x 0 -y 0 -Z 0 -z 15+i*10  -v circle -c green
n -t * -s 37  -x 0 -y 0 -Z 0 -z 15+i*10  -v circle -c green
n -t * -s 38  -x 0 -y 0 -Z 0 -z 15+i*10  -v circle -c green
n -t * -s 39  -x 0 -y 0 -Z 0 -z 15+i*10  -v circle -c green
V -t * -v 1.0a5 -a 0
W -t * -x 500 -y 500
A -t * -n 1 -p 0 -o 0xffffffff -c 31 -a 1
A -t * -h 1 -m 2147483647 -s 0
n -t 0 -s 0 -S DLABEL -l "nodes" -L ""
n -t 0 -s 1 -S DLABEL -l "nodes" -L ""
n -t 0 -s 2 -S DLABEL -l "nodes" -L ""
n -t 0 -s 3 -S DLABEL -l "nodes" -L ""
n -t 0 -s 4 -S DLABEL -l "nodes" -L ""
n -t 0 -s 5 -S DLABEL -l "nodes" -L ""
n -t 0 -s 6 -S DLABEL -l "nodes" -L ""
n -t 0 -s 7 -S DLABEL -l "nodes" -L ""
n -t 0 -s 8 -S DLABEL -l "nodes" -L ""
n -t 0 -s 9 -S DLABEL -l "nodes" -L ""
n -t 0 -s 10 -S DLABEL -l "nodes" -L ""
n -t 0 -s 11 -S DLABEL -l "nodes" -L ""
n -t 0 -s 12 -S DLABEL -l "nodes" -L ""
n -t 0 -s 13 -S DLABEL -l "nodes" -L ""
n -t 0 -s 14 -S DLABEL -l "nodes" -L ""
n -t 0 -s 15 -S DLABEL -l "nodes" -L ""
n -t 0 -s 16 -S DLABEL -l "nodes" -L ""
n -t 0 -s 17 -S DLABEL -l "nodes" -L ""
n -t 0 -s 18 -S DLABEL -l "nodes" -L ""
n -t 0 -s 19 -S DLABEL -l "nodes" -L ""
n -t 0 -s 20 -S DLABEL -l "nodes" -L ""
n -t 0 -s 21 -S DLABEL -l "nodes" -L ""
n -t 0 -s 22 -S DLABEL -l "nodes" -L ""
n -t 0 -s 23 -S DLABEL -l "nodes" -L ""
n -t 0 -s 24 -S DLABEL -l "nodes" -L ""
n -t 0 -s 25 -S DLABEL -l "nodes" -L ""
n -t 0 -s 26 -S DLABEL -l "nodes" -L ""
n -t 0 -s 27 -S DLABEL -l "nodes" -L ""
n -t 0 -s 28 -S DLABEL -l "nodes" -L ""
n -t 0 -s 29 -S DLABEL -l "nodes" -L ""
n -t 0 -s 30 -S DLABEL -l "nodes" -L ""
n -t 0 -s 31 -S DLABEL -l "nodes" -L ""
n -t 0 -s 32 -S DLABEL -l "nodes" -L ""
n -t 0 -s 33 -S DLABEL -l "nodes" -L ""
n -t 0 -s 34 -S DLABEL -l "nodes" -L ""
n -t 0 -s 35 -S DLABEL -l "nodes" -L ""
n -t 0 -s 36 -S DLABEL -l "nodes" -L ""
n -t 0 -s 37 -S DLABEL -l "nodes" -L ""
n -t 0 -s 38 -S DLABEL -l "nodes" -L ""
n -t 0 -s 39 -S DLABEL -l "nodes" -L ""
n -t 0.000000 -s 0 -x 0.000000 -y 0.000000 -U 7071.067812 -V 7071.067812 -T 0.007071
n -t 0.000000 -s 1 -x 0.000000 -y 0.000000 -U 3162.277660 -V 9486.832981 -T 0.015811
n -t 0.000000 -s 2 -x 0.000000 -y 0.000000 -U 1961.161351 -V 9805.806757 -T 0.025495
n -t 0.000000 -s 3 -x 0.000000 -y 0.000000 -U 9950.371902 -V 995.037190 -T 0.005025
n -t 0.000000 -s 4 -x 0.000000 -y 0.000000 -U 1104.315261 -V 9938.837347 -T 0.045277
n -t 0.000000 -s 5 -x 0.000000 -y 0.000000 -U 9486.832981 -V 3162.277660 -T 0.015811
n -t 0.000000 -s 6 -x 0.000000 -y 0.000000 -U 7071.067812 -V 7071.067812 -T 0.021213
n -t 0.000000 -s 7 -x 0.000000 -y 0.000000 -U 5144.957554 -V 8574.929257 -T 0.029155
n -t 0.000000 -s 8 -x 0.000000 -y 0.000000 -U 9994.449070 -V 333.148302 -T 0.015008
n -t 0.000000 -s 9 -x 0.000000 -y 0.000000 -U 3162.277660 -V 9486.832981 -T 0.047434
n -t 0.000000 -s 10 -x 0.000000 -y 0.000000 -U 9805.806757 -V 1961.161351 -T 0.025495
n -t 0.000000 -s 11 -x 0.000000 -y 0.000000 -U 8574.929257 -V 5144.957554 -T 0.029155
n -t 0.000000 -s 12 -x 0.000000 -y 0.000000 -U 7071.067812 -V 7071.067812 -T 0.035355
n -t 0.000000 -s 13 -x 0.000000 -y 0.000000 -U 9998.000600 -V 199.960012 -T 0.025005
n -t 0.000000 -s 14 -x 0.000000 -y 0.000000 -U 4856.429312 -V 8741.572761 -T 0.051478
n -t 0.000000 -s 15 -x 0.000000 -y 0.000000 -U 995.037190 -V 9950.371902 -T 0.005025
n -t 0.000000 -s 16 -x 0.000000 -y 0.000000 -U 333.148302 -V 9994.449070 -T 0.015008
n -t 0.000000 -s 17 -x 0.000000 -y 0.000000 -U 199.960012 -V 9998.000600 -T 0.025005
n -t 0.000000 -s 18 -x 0.000000 -y 0.000000 -U 7071.067812 -V 7071.067812 -T 0.000707
n -t 0.000000 -s 19 -x 0.000000 -y 0.000000 -U 111.104253 -V 9999.382773 -T 0.045003
n -t 0.000000 -s 20 -x 0.000000 -y 0.000000 -U 9938.837347 -V 1104.315261 -T 0.045277
n -t 0.000000 -s 21 -x 0.000000 -y 0.000000 -U 9486.832981 -V 3162.277660 -T 0.047434
n -t 0.000000 -s 22 -x 0.000000 -y 0.000000 -U 8741.572761 -V 4856.429312 -T 0.051478
n -t 0.000000 -s 23 -x 0.000000 -y 0.000000 -U 9999.382773 -V 111.104253 -T 0.045003
n -t 0.000000 -s 24 -x 0.000000 -y 0.000000 -U 7071.067812 -V 7071.067812 -T 0.063640
n -t 0.000000 -s 25 -x 0.000000 -y 0.000000 -U 7071.067812 -V 7071.067812 -T 0.000014
n -t 0.000000 -s 26 -x 0.000000 -y 0.000000 -U 9997.531778 -V 222.167373 -T 0.045011
n -t 0.000000 -s 27 -x 0.000000 -y 0.000000 -U 8940.685598 -V 4479.301402 -T 0.055812
n -t 0.000000 -s 28 -x 0.000000 -y 0.000000 -U 9999.498032 -V 100.195371 -T 0.049903
n -t 0.000000 -s 29 -x 0.000000 -y 0.000000 -U 9576.676757 -V 2878.760548 -T 0.052106
n -t 0.000000 -s 30 -x 0.000000 -y 0.000000 -U 9945.054529 -V 1046.847845 -T 0.047762
n -t 0.000000 -s 31 -x 0.000000 -y 0.000000 -U 9429.903336 -V 3328.201177 -T 0.045069
n -t 0.000000 -s 32 -x 0.000000 -y 0.000000 -U 8320.502943 -V 5547.001962 -T 0.045069
n -t 0.000000 -s 33 -x 0.000000 -y 0.000000 -U 9998.347517 -V 181.788137 -T 0.027505
n -t 0.000000 -s 34 -x 0.000000 -y 0.000000 -U 5214.500095 -V 8532.818337 -T 0.052738
n -t 0.000000 -s 35 -x 0.000000 -y 0.000000 -U 9999.980080 -V 19.960040 -T 0.005010
n -t 0.000000 -s 36 -x 0.000000 -y 0.000000 -U 9987.523389 -V 499.376169 -T 0.020025
n -t 0.000000 -s 37 -x 0.000000 -y 0.000000 -U 7917.147213 -V 6108.909887 -T 0.040924
n -t 0.000000 -s 38 -x 0.000000 -y 0.000000 -U 9997.509700 -V 223.158699 -T 0.022406
n -t 0.000000 -s 39 -x 0.000000 -y 0.000000 -U 9187.360473 -V 3948.722266 -T 0.037987
+ -t 0.100000000 -s 0 -d -1 -p tcp -e 40 -c 2 -a 0 -i 0 -k AGT 
- -t 0.100000000 -s 0 -d -1 -p tcp -e 40 -c 2 -a 0 -i 0 -k AGT
h -t 0.100000000 -s 0 -d -1 -p tcp -e 40 -c 2 -a 0 -i 0 -k AGT
+ -t 0.100000000 -s 0 -d -1 -p AODV -e 48 -c 2 -a 0 -i 0 -k RTR 
- -t 0.100000000 -s 0 -d -1 -p AODV -e 48 -c 2 -a 0 -i 0 -k RTR
h -t 0.100000000 -s 0 -d -1 -p AODV -e 48 -c 2 -a 0 -i 0 -k RTR
+ -t 0.100295000 -s 0 -d -1 -p AODV -e 106 -c 2 -a 0 -i 0 -k MAC 
- -t 0.100295000 -s 0 -d -1 -p AODV -e 106 -c 2 -a 0 -i 0 -k MAC
h -t 0.100295000 -s 0 -d -1 -p AODV -e 106 -c 2 -a 0 -i 0 -k MAC
r -t 0.101143150 -s 3 -d -1 -p AODV -e 48 -c 2 -a 0 -i 0 -k MAC
r -t 0.101143150 -s 15 -d -1 -p AODV -e 48 -c 2 -a 0 -i 0 -k MAC
r -t 0.101143166 -s 35 -d -1 -p AODV -e 48 -c 2 -a 0 -i 0 -k MAC
r -t 0.101143212 -s 18 -d -1 -p AODV -e 48 -c 2 -a 0 -i 0 -k MAC
r -t 0.101143235 -s 25 -d -1 -p AODV -e 48 -c 2 -a 0 -i 0 -k MAC
r -t 0.101143333 -s 1 -d -1 -p AODV -e 48 -c 2 -a 0 -i 0 -k MAC
r -t 0.101143333 -s 5 -d -1 -p AODV -e 48 -c 2 -a 0 -i 0 -k MAC
r -t 0.101143366 -s 8 -d -1 -p AODV -e 48 -c 2 -a 0 -i 0 -k MAC
r -t 0.101143366 -s 16 -d -1 -p AODV -e 48 -c 2 -a 0 -i 0 -k MAC
r -t 0.101143471 -s 6 -d -1 -p AODV -e 48 -c 2 -a 0 -i 0 -k MAC
r -t 0.101143517 -s 36 -d -1 -p AODV -e 48 -c 2 -a 0 -i 0 -k MAC
r -t 0.101143599 -s 38 -d -1 -p AODV -e 48 -c 2 -a 0 -i 0 -k MAC
r -t 0.101143667 -s 2 -d -1 -p AODV -e 48 -c 2 -a 0 -i 0 -k MAC
r -t 0.101143667 -s 10 -d -1 -p AODV -e 48 -c 2 -a 0 -i 0 -k MAC
r -t 0.101143683 -s 13 -d -1 -p AODV -e 48 -c 2 -a 0 -i 0 -k MAC
r -t 0.101143683 -s 17 -d -1 -p AODV -e 48 -c 2 -a 0 -i 0 -k MAC
r -t 0.101143745 -s 7 -d -1 -p AODV -e 48 -c 2 -a 0 -i 0 -k MAC
r -t 0.101143745 -s 11 -d -1 -p AODV -e 48 -c 2 -a 0 -i 0 -k MAC
r -t 0.101143765 -s 33 -d -1 -p AODV -e 48 -c 2 -a 0 -i 0 -k MAC
r -t 0.101168150 -s 3 -d -1 -p AODV -e 48 -c 2 -a 0 -i 0 -k RTR
r -t 0.101168150 -s 15 -d -1 -p AODV -e 48 -c 2 -a 0 -i 0 -k RTR
+ -t 0.101168150 -s 3 -d 0 -p AODV -e 44 -c 2 -a 0 -i 0 -k RTR 
- -t 0.101168150 -s 3 -d 0 -p AODV -e 44 -c 2 -a 0 -i 0 -k RTR
h -t 0.101168150 -s 3 -d 0 -p AODV -e 44 -c 2 -a 0 -i 0 -k RTR
r -t 0.101168166 -s 35 -d -1 -p AODV -e 48 -c 2 -a 0 -i 0 -k RTR
r -t 0.101168212 -s 18 -d -1 -p AODV -e 48 -c 2 -a 0 -i 0 -k RTR
r -t 0.101168235 -s 25 -d -1 -p AODV -e 48 -c 2 -a 0 -i 0 -k RTR
r -t 0.101168333 -s 1 -d -1 -p AODV -e 48 -c 2 -a 0 -i 0 -k RTR
r -t 0.101168333 -s 5 -d -1 -p AODV -e 48 -c 2 -a 0 -i 0 -k RTR
r -t 0.101168366 -s 8 -d -1 -p AODV -e 48 -c 2 -a 0 -i 0 -k RTR
r -t 0.101168366 -s 16 -d -1 -p AODV -e 48 -c 2 -a 0 -i 0 -k RTR
r -t 0.101168471 -s 6 -d -1 -p AODV -e 48 -c 2 -a 0 -i 0 -k RTR
r -t 0.101168517 -s 36 -d -1 -p AODV -e 48 -c 2 -a 0 -i 0 -k RTR
r -t 0.101168599 -s 38 -d -1 -p AODV -e 48 -c 2 -a 0 -i 0 -k RTR
r -t 0.101168667 -s 2 -d -1 -p AODV -e 48 -c 2 -a 0 -i 0 -k RTR
r -t 0.101168667 -s 10 -d -1 -p AODV -e 48 -c 2 -a 0 -i 0 -k RTR
r -t 0.101168683 -s 13 -d -1 -p AODV -e 48 -c 2 -a 0 -i 0 -k RTR
r -t 0.101168683 -s 17 -d -1 -p AODV -e 48 -c 2 -a 0 -i 0 -k RTR
r -t 0.101168745 -s 7 -d -1 -p AODV -e 48 -c 2 -a 0 -i 0 -k RTR
r -t 0.101168745 -s 11 -d -1 -p AODV -e 48 -c 2 -a 0 -i 0 -k RTR
r -t 0.101168765 -s 33 -d -1 -p AODV -e 48 -c 2 -a 0 -i 0 -k RTR
+ -t 0.101276296 -s 18 -d -1 -p AODV -e 48 -c 2 -a 0 -i 0 -k RTR 
- -t 0.101276296 -s 18 -d -1 -p AODV -e 48 -c 2 -a 0 -i 0 -k RTR
h -t 0.101276296 -s 18 -d -1 -p AODV -e 48 -c 2 -a 0 -i 0 -k RTR
+ -t 0.101444258 -s 17 -d -1 -p AODV -e 48 -c 2 -a 0 -i 0 -k RTR 
- -t 0.101444258 -s 17 -d -1 -p AODV -e 48 -c 2 -a 0 -i 0 -k RTR
h -t 0.101444258 -s 17 -d -1 -p AODV -e 48 -c 2 -a 0 -i 0 -k RTR
+ -t 0.101523150 -s 3 -d -1 -p ARP -e 86 -c 2 -a 0 -i 0 -k MAC 
- -t 0.101523150 -s 3 -d -1 -p ARP -e 86 -c 2 -a 0 -i 0 -k MAC
h -t 0.101523150 -s 3 -d -1 -p ARP -e 86 -c 2 -a 0 -i 0 -k MAC
+ -t 0.101752193 -s 35 -d -1 -p AODV -e 48 -c 2 -a 0 -i 0 -k RTR 
- -t 0.101752193 -s 35 -d -1 -p AODV -e 48 -c 2 -a 0 -i 0 -k RTR
h -t 0.101752193 -s 35 -d -1 -p AODV -e 48 -c 2 -a 0 -i 0 -k RTR
r -t 0.102211166 -s 35 -d -1 -p ARP -e 28 -c 2 -a 0 -i 0 -k MAC
r -t 0.102211300 -s 18 -d -1 -p ARP -e 28 -c 2 -a 0 -i 0 -k MAC
r -t 0.102211300 -s 0 -d -1 -p ARP -e 28 -c 2 -a 0 -i 0 -k MAC
r -t 0.102211317 -s 25 -d -1 -p ARP -e 28 -c 2 -a 0 -i 0 -k MAC
r -t 0.102211362 -s 15 -d -1 -p ARP -e 28 -c 2 -a 0 -i 0 -k MAC
r -t 0.102211483 -s 8 -d -1 -p ARP -e 28 -c 2 -a 0 -i 0 -k MAC
r -t 0.102211516 -s 5 -d -1 -p ARP -e 28 -c 2 -a 0 -i 0 -k MAC
r -t 0.102211633 -s 1 -d -1 -p ARP -e 28 -c 2 -a 0 -i 0 -k MAC
r -t 0.102211650 -s 36 -d -1 -p ARP -e 28 -c 2 -a 0 -i 0 -k MAC
r -t 0.102211656 -s 16 -d -1 -p ARP -e 28 -c 2 -a 0 -i 0 -k MAC
r -t 0.102211730 -s 38 -d -1 -p ARP -e 28 -c 2 -a 0 -i 0 -k MAC
r -t 0.102211737 -s 6 -d -1 -p ARP -e 28 -c 2 -a 0 -i 0 -k MAC
r -t 0.102211817 -s 13 -d -1 -p ARP -e 28 -c 2 -a 0 -i 0 -k MAC
r -t 0.102211833 -s 10 -d -1 -p ARP -e 28 -c 2 -a 0 -i 0 -k MAC
r -t 0.102211900 -s 33 -d -1 -p ARP -e 28 -c 2 -a 0 -i 0 -k MAC
r -t 0.102211967 -s 2 -d -1 -p ARP -e 28 -c 2 -a 0 -i 0 -k MAC
r -t 0.102211973 -s 11 -d -1 -p ARP -e 28 -c 2 -a 0 -i 0 -k MAC
r -t 0.102211980 -s 17 -d -1 -p ARP -e 28 -c 2 -a 0 -i 0 -k MAC
+ -t 0.102281980 -s 17 -d -1 -p AODV -e 106 -c 2 -a 0 -i 0 -k MAC 
- -t 0.102281980 -s 17 -d -1 -p AODV -e 106 -c 2 -a 0 -i 0 -k MAC
h -t 0.102281980 -s 17 -d -1 -p AODV -e 106 -c 2 -a 0 -i 0 -k MAC
+ -t 0.102288463 -s 15 -d -1 -p AODV -e 48 -c 2 -a 0 -i 0 -k RTR 
- -t 0.102288463 -s 15 -d -1 -p AODV -e 48 -c 2 -a 0 -i 0 -k RTR
h -t 0.102288463 -s 15 -d -1 -p AODV -e 48 -c 2 -a 0 -i 0 -k RTR
+ -t 0.102399368 -s 5 -d -1 -p AODV -e 48 -c 2 -a 0 -i 0 -k RTR 
- -t 0.102399368 -s 5 -d -1 -p AODV -e 48 -c 2 -a 0 -i 0 -k RTR
h -t 0.102399368 -s 5 -d -1 -p AODV -e 48 -c 2 -a 0 -i 0 -k RTR
+ -t 0.103030888 -s 11 -d -1 -p AODV -e 48 -c 2 -a 0 -i 0 -k RTR 
- -t 0.103030888 -s 11 -d -1 -p AODV -e 48 -c 2 -a 0 -i 0 -k RTR
h -t 0.103030888 -s 11 -d -1 -p AODV -e 48 -c 2 -a 0 -i 0 -k RTR
r -t 0.103130130 -s 2 -d -1 -p AODV -e 48 -c 2 -a 0 -i 0 -k MAC
r -t 0.103130314 -s 16 -d -1 -p AODV -e 48 -c 2 -a 0 -i 0 -k MAC
r -t 0.103130346 -s 1 -d -1 -p AODV -e 48 -c 2 -a 0 -i 0 -k MAC
r -t 0.103130464 -s 7 -d -1 -p AODV -e 48 -c 2 -a 0 -i 0 -k MAC
r -t 0.103130567 -s 6 -d -1 -p AODV -e 48 -c 2 -a 0 -i 0 -k MAC
r -t 0.103130647 -s 19 -d -1 -p AODV -e 48 -c 2 -a 0 -i 0 -k MAC
r -t 0.103130647 -s 15 -d -1 -p AODV -e 48 -c 2 -a 0 -i 0 -k MAC
r -t 0.103130664 -s 4 -d -1 -p AODV -e 48 -c 2 -a 0 -i 0 -k MAC
r -t 0.103130664 -s 0 -d -1 -p AODV -e 48 -c 2 -a 0 -i 0 -k MAC
r -t 0.103130797 -s 18 -d -1 -p AODV -e 48 -c 2 -a 0 -i 0 -k MAC
r -t 0.103130797 -s 12 -d -1 -p AODV -e 48 -c 2 -a 0 -i 0 -k MAC
r -t 0.103130804 -s 9 -d -1 -p AODV -e 48 -c 2 -a 0 -i 0 -k MAC
r -t 0.103130804 -s 5 -d -1 -p AODV -e 48 -c 2 -a 0 -i 0 -k MAC
r -t 0.103130811 -s 3 -d -1 -p AODV -e 48 -c 2 -a 0 -i 0 -k MAC
r -t 0.103130813 -s 25 -d -1 -p AODV -e 48 -c 2 -a 0 -i 0 -k MAC
r -t 0.103155130 -s 2 -d -1 -p AODV -e 48 -c 2 -a 0 -i 0 -k RTR
r -t 0.103155314 -s 16 -d -1 -p AODV -e 48 -c 2 -a 0 -i 0 -k RTR
r -t 0.103155346 -s 1 -d -1 -p AODV -e 48 -c 2 -a 0 -i 0 -k RTR
r -t 0.103155464 -s 7 -d -1 -p AODV -e 48 -c 2 -a 0 -i 0 -k RTR
r -t 0.103155567 -s 6 -d -1 -p AODV -e 48 -c 2 -a 0 -i 0 -k RTR
r -t 0.103155647 -s 19 -d -1 -p AODV -e 48 -c 2 -a 0 -i 0 -k RTR
r -t 0.103155647 -s 15 -d -1 -p AODV -e 48 -c 2 -a 0 -i 0 -k RTR
r -t 0.103155664 -s 4 -d -1 -p AODV -e 48 -c 2 -a 0 -i 0 -k RTR
r -t 0.103155664 -s 0 -d -1 -p AODV -e 48 -c 2 -a 0 -i 0 -k RTR
r -t 0.103155797 -s 18 -d -1 -p AODV -e 48 -c 2 -a 0 -i 0 -k RTR
r -t 0.103155797 -s 12 -d -1 -p AODV -e 48 -c 2 -a 0 -i 0 -k RTR
r -t 0.103155804 -s 9 -d -1 -p AODV -e 48 -c 2 -a 0 -i 0 -k RTR
r -t 0.103155804 -s 5 -d -1 -p AODV -e 48 -c 2 -a 0 -i 0 -k RTR
r -t 0.103155811 -s 3 -d -1 -p AODV -e 48 -c 2 -a 0 -i 0 -k RTR
r -t 0.103155813 -s 25 -d -1 -p AODV -e 48 -c 2 -a 0 -i 0 -k RTR
+ -t 0.103220804 -s 5 -d -1 -p AODV -e 106 -c 2 -a 0 -i 0 -k MAC 
- -t 0.103220804 -s 5 -d -1 -p AODV -e 106 -c 2 -a 0 -i 0 -k MAC
h -t 0.103220804 -s 5 -d -1 -p AODV -e 106 -c 2 -a 0 -i 0 -k MAC
+ -t 0.103738303 -s 16 -d -1 -p AODV -e 48 -c 2 -a 0 -i 0 -k RTR 
- -t 0.103738303 -s 16 -d -1 -p AODV -e 48 -c 2 -a 0 -i 0 -k RTR
h -t 0.103738303 -s 16 -d -1 -p AODV -e 48 -c 2 -a 0 -i 0 -k RTR
+ -t 0.103786908 -s 2 -d -1 -p AODV -e 48 -c 2 -a 0 -i 0 -k RTR 
- -t 0.103786908 -s 2 -d -1 -p AODV -e 48 -c 2 -a 0 -i 0 -k RTR
h -t 0.103786908 -s 2 -d -1 -p AODV -e 48 -c 2 -a 0 -i 0 -k RTR
+ -t 0.104037805 -s 9 -d -1 -p AODV -e 48 -c 2 -a 0 -i 0 -k RTR 
- -t 0.104037805 -s 9 -d -1 -p AODV -e 48 -c 2 -a 0 -i 0 -k RTR
h -t 0.104037805 -s 9 -d -1 -p AODV -e 48 -c 2 -a 0 -i 0 -k RTR
r -t 0.104068954 -s 8 -d -1 -p AODV -e 48 -c 2 -a 0 -i 0 -k MAC
r -t 0.104069017 -s 36 -d -1 -p AODV -e 48 -c 2 -a 0 -i 0 -k MAC
r -t 0.104069092 -s 38 -d -1 -p AODV -e 48 -c 2 -a 0 -i 0 -k MAC
r -t 0.104069137 -s 6 -d -1 -p AODV -e 48 -c 2 -a 0 -i 0 -k MAC
r -t 0.104069137 -s 0 -d -1 -p AODV -e 48 -c 2 -a 0 -i 0 -k MAC
r -t 0.104069137 -s 10 -d -1 -p AODV -e 48 -c 2 -a 0 -i 0 -k MAC
r -t 0.104069169 -s 3 -d -1 -p AODV -e 48 -c 2 -a 0 -i 0 -k MAC
r -t 0.104069169 -s 13 -d -1 -p AODV -e 48 -c 2 -a 0 -i 0 -k MAC
r -t 0.104069176 -s 35 -d -1 -p AODV -e 48 -c 2 -a 0 -i 0 -k MAC
r -t 0.104069247 -s 33 -d -1 -p AODV -e 48 -c 2 -a 0 -i 0 -k MAC
r -t 0.104069275 -s 1 -d -1 -p AODV -e 48 -c 2 -a 0 -i 0 -k MAC
r -t 0.104069275 -s 11 -d -1 -p AODV -e 48 -c 2 -a 0 -i 0 -k MAC
r -t 0.104069287 -s 15 -d -1 -p AODV -e 48 -c 2 -a 0 -i 0 -k MAC
r -t 0.104069310 -s 18 -d -1 -p AODV -e 48 -c 2 -a 0 -i 0 -k MAC
r -t 0.104069330 -s 25 -d -1 -p AODV -e 48 -c 2 -a 0 -i 0 -k MAC
r -t 0.104069391 -s 16 -d -1 -p AODV -e 48 -c 2 -a 0 -i 0 -k MAC
r -t 0.104069470 -s 7 -d -1 -p AODV -e 48 -c 2 -a 0 -i 0 -k MAC
r -t 0.104069546 -s 39 -d -1 -p AODV -e 48 -c 2 -a 0 -i 0 -k MAC
r -t 0.104069549 -s 2 -d -1 -p AODV -e 48 -c 2 -a 0 -i 0 -k MAC
r -t 0.104069549 -s 12 -d -1 -p AODV -e 48 -c 2 -a 0 -i 0 -k MAC
r -t 0.104069627 -s 17 -d -1 -p AODV -e 48 -c 2 -a 0 -i 0 -k MAC
r -t 0.104093954 -s 8 -d -1 -p AODV -e 48 -c 2 -a 0 -i 0 -k RTR
r -t 0.104094017 -s 36 -d -1 -p AODV -e 48 -c 2 -a 0 -i 0 -k RTR
r -t 0.104094092 -s 38 -d -1 -p AODV -e 48 -c 2 -a 0 -i 0 -k RTR
r -t 0.104094137 -s 6 -d -1 -p AODV -e 48 -c 2 -a 0 -i 0 -k RTR
r -t 0.104094137 -s 0 -d -1 -p AODV -e 48 -c 2 -a 0 -i 0 -k RTR
r -t 0.104094137 -s 10 -d -1 -p AODV -e 48 -c 2 -a 0 -i 0 -k RTR
r -t 0.104094169 -s 3 -d -1 -p AODV -e 48 -c 2 -a 0 -i 0 -k RTR
r -t 0.104094169 -s 13 -d -1 -p AODV -e 48 -c 2 -a 0 -i 0 -k RTR
r -t 0.104094176 -s 35 -d -1 -p AODV -e 48 -c 2 -a 0 -i 0 -k RTR
r -t 0.104094247 -s 33 -d -1 -p AODV -e 48 -c 2 -a 0 -i 0 -k RTR
r -t 0.104094275 -s 1 -d -1 -p AODV -e 48 -c 2 -a 0 -i 0 -k RTR
r -t 0.104094275 -s 11 -d -1 -p AODV -e 48 -c 2 -a 0 -i 0 -k RTR
r -t 0.104094287 -s 15 -d -1 -p AODV -e 48 -c 2 -a 0 -i 0 -k RTR
r -t 0.104094310 -s 18 -d -1 -p AODV -e 48 -c 2 -a 0 -i 0 -k RTR
r -t 0.104094330 -s 25 -d -1 -p AODV -e 48 -c 2 -a 0 -i 0 -k RTR
r -t 0.104094391 -s 16 -d -1 -p AODV -e 48 -c 2 -a 0 -i 0 -k RTR
r -t 0.104094470 -s 7 -d -1 -p AODV -e 48 -c 2 -a 0 -i 0 -k RTR
r -t 0.104094546 -s 39 -d -1 -p AODV -e 48 -c 2 -a 0 -i 0 -k RTR
r -t 0.104094549 -s 2 -d -1 -p AODV -e 48 -c 2 -a 0 -i 0 -k RTR
r -t 0.104094549 -s 12 -d -1 -p AODV -e 48 -c 2 -a 0 -i 0 -k RTR
r -t 0.104094627 -s 17 -d -1 -p AODV -e 48 -c 2 -a 0 -i 0 -k RTR
+ -t 0.104179310 -s 18 -d -1 -p AODV -e 106 -c 2 -a 0 -i 0 -k MAC 
- -t 0.104179310 -s 18 -d -1 -p AODV -e 106 -c 2 -a 0 -i 0 -k MAC
h -t 0.104179310 -s 18 -d -1 -p AODV -e 106 -c 2 -a 0 -i 0 -k MAC
+ -t 0.104179549 -s 2 -d -1 -p AODV -e 106 -c 2 -a 0 -i 0 -k MAC 
- -t 0.104179549 -s 2 -d -1 -p AODV -e 106 -c 2 -a 0 -i 0 -k MAC
h -t 0.104179549 -s 2 -d -1 -p AODV -e 106 -c 2 -a 0 -i 0 -k MAC
d -t 0.104179882 -s 1 -d -1 -p AODV -e 106 -c 2 -a 0 -i 0 -k MAC
d -t 0.104179915 -s 16 -d -1 -p AODV -e 106 -c 2 -a 0 -i 0 -k MAC
d -t 0.104180021 -s 6 -d -1 -p AODV -e 106 -c 2 -a 0 -i 0 -k MAC
d -t 0.104180294 -s 5 -d -1 -p AODV -e 106 -c 2 -a 0 -i 0 -k MAC
d -t 0.104180465 -s 12 -d -1 -p AODV -e 106 -c 2 -a 0 -i 0 -k MAC
d -t 0.104180492 -s 10 -d -1 -p AODV -e 106 -c 2 -a 0 -i 0 -k MAC
d -t 0.104180493 -s 36 -d -1 -p AODV -e 106 -c 2 -a 0 -i 0 -k MAC
d -t 0.104180551 -s 38 -d -1 -p AODV -e 106 -c 2 -a 0 -i 0 -k MAC
d -t 0.104180603 -s 13 -d -1 -p AODV -e 106 -c 2 -a 0 -i 0 -k MAC
+ -t 0.104441915 -s 7 -d -1 -p AODV -e 48 -c 2 -a 0 -i 0 -k RTR 
- -t 0.104441915 -s 7 -d -1 -p AODV -e 48 -c 2 -a 0 -i 0 -k RTR
h -t 0.104441915 -s 7 -d -1 -p AODV -e 48 -c 2 -a 0 -i 0 -k RTR
+ -t 0.104524961 -s 1 -d -1 -p AODV -e 48 -c 2 -a 0 -i 0 -k RTR 
- -t 0.104524961 -s 1 -d -1 -p AODV -e 48 -c 2 -a 0 -i 0 -k RTR
h -t 0.104524961 -s 1 -d -1 -p AODV -e 48 -c 2 -a 0 -i 0 -k RTR
r -t 0.105027333 -s 25 -d -1 -p AODV -e 48 -c 2 -a 0 -i 0 -k MAC
r -t 0.105027460 -s 15 -d -1 -p AODV -e 48 -c 2 -a 0 -i 0 -k MAC
r -t 0.105027460 -s 3 -d -1 -p AODV -e 48 -c 2 -a 0 -i 0 -k MAC
r -t 0.105027461 -s 35 -d -1 -p AODV -e 48 -c 2 -a 0 -i 0 -k MAC
r -t 0.105027522 -s 0 -d -1 -p AODV -e 48 -c 2 -a 0 -i 0 -k MAC
r -t 0.105027699 -s 17 -d -1 -p AODV -e 48 -c 2 -a 0 -i 0 -k MAC
r -t 0.105027793 -s 8 -d -1 -p AODV -e 48 -c 2 -a 0 -i 0 -k MAC
d -t 0.105027882 -s 1 -d -1 -p AODV -e 106 -c 2 -a 0 -i 0 -k MAC
r -t 0.105027882 -s 7 -d -1 -p AODV -e 48 -c 2 -a 0 -i 0 -k MAC
d -t 0.105027915 -s 16 -d -1 -p AODV -e 106 -c 2 -a 0 -i 0 -k MAC
d -t 0.105028021 -s 6 -d -1 -p AODV -e 106 -c 2 -a 0 -i 0 -k MAC
r -t 0.105028216 -s 4 -d -1 -p AODV -e 48 -c 2 -a 0 -i 0 -k MAC
r -t 0.105028232 -s 19 -d -1 -p AODV -e 48 -c 2 -a 0 -i 0 -k MAC
r -t 0.105028294 -s 9 -d -1 -p AODV -e 48 -c 2 -a 0 -i 0 -k MAC
d -t 0.105028294 -s 5 -d -1 -p AODV -e 106 -c 2 -a 0 -i 0 -k MAC
d -t 0.105028294 -s 11 -d -1 -p AODV -e 106 -c 2 -a 0 -i 0 -k MAC
r -t 0.105052333 -s 25 -d -1 -p AODV -e 48 -c 2 -a 0 -i 0 -k RTR
r -t 0.105052460 -s 15 -d -1 -p AODV -e 48 -c 2 -a 0 -i 0 -k RTR
r -t 0.105052460 -s 3 -d -1 -p AODV -e 48 -c 2 -a 0 -i 0 -k RTR
r -t 0.105052461 -s 35 -d -1 -p AODV -e 48 -c 2 -a 0 -i 0 -k RTR
r -t 0.105052522 -s 0 -d -1 -p AODV -e 48 -c 2 -a 0 -i 0 -k RTR
r -t 0.105052699 -s 17 -d -1 -p AODV -e 48 -c 2 -a 0 -i 0 -k RTR
r -t 0.105052793 -s 8 -d -1 -p AODV -e 48 -c 2 -a 0 -i 0 -k RTR
r -t 0.105052882 -s 7 -d -1 -p AODV -e 48 -c 2 -a 0 -i 0 -k RTR
r -t 0.105053216 -s 4 -d -1 -p AODV -e 48 -c 2 -a 0 -i 0 -k RTR
r -t 0.105053232 -s 19 -d -1 -p AODV -e 48 -c 2 -a 0 -i 0 -k RTR
r -t 0.105053294 -s 9 -d -1 -p AODV -e 48 -c 2 -a 0 -i 0 -k RTR
+ -t 0.105425556 -s 13 -d -1 -p AODV -e 48 -c 2 -a 0 -i 0 -k RTR 
- -t 0.105425556 -s 13 -d -1 -p AODV -e 48 -c 2 -a 0 -i 0 -k RTR
h -t 0.105425556 -s 13 -d -1 -p AODV -e 48 -c 2 -a 0 -i 0 -k RTR
+ -t 0.105462216 -s 0 -d -1 -p RTS -e 44 -c 2 -a 0 -i 0 -k MAC 
- -t 0.105462216 -s 0 -d -1 -p RTS -e 44 -c 2 -a 0 -i 0 -k MAC
h -t 0.105462216 -s 0 -d -1 -p RTS -e 44 -c 2 -a 0 -i 0 -k MAC
r -t 0.105814366 -s 3 -d -1 -p RTS -e 44 -c 2 -a 0 -i 0 -k MAC
+ -t 0.105824366 -s 3 -d -1 -p CTS -e 38 -c 2 -a 0 -i 0 -k MAC 
- -t 0.105824366 -s 3 -d -1 -p CTS -e 38 -c 2 -a 0 -i 0 -k MAC
h -t 0.105824366 -s 3 -d -1 -p CTS -e 38 -c 2 -a 0 -i 0 -k MAC
r -t 0.106128516 -s 0 -d -1 -p CTS -e 38 -c 2 -a 0 -i 0 -k MAC
+ -t 0.106138516 -s 0 -d -1 -p ARP -e 86 -c 2 -a 0 -i 0 -k MAC 
- -t 0.106138516 -s 0 -d -1 -p ARP -e 86 -c 2 -a 0 -i 0 -k MAC
h -t 0.106138516 -s 0 -d -1 -p ARP -e 86 -c 2 -a 0 -i 0 -k MAC
+ -t 0.106616737 -s 36 -d -1 -p AODV -e 48 -c 2 -a 0 -i 0 -k RTR 
- -t 0.106616737 -s 36 -d -1 -p AODV -e 48 -c 2 -a 0 -i 0 -k RTR
h -t 0.106616737 -s 36 -d -1 -p AODV -e 48 -c 2 -a 0 -i 0 -k RTR
+ -t 0.106717063 -s 10 -d -1 -p AODV -e 48 -c 2 -a 0 -i 0 -k RTR 
- -t 0.106717063 -s 10 -d -1 -p AODV -e 48 -c 2 -a 0 -i 0 -k RTR
h -t 0.106717063 -s 10 -d -1 -p AODV -e 48 -c 2 -a 0 -i 0 -k RTR
r -t 0.106826666 -s 3 -d -1 -p ARP -e 28 -c 2 -a 0 -i 0 -k MAC
+ -t 0.106836666 -s 3 -d -1 -p ACK -e 38 -c 2 -a 0 -i 0 -k MAC 
- -t 0.106836666 -s 3 -d -1 -p ACK -e 38 -c 2 -a 0 -i 0 -k MAC
h -t 0.106836666 -s 3 -d -1 -p ACK -e 38 -c 2 -a 0 -i 0 -k MAC
+ -t 0.107118509 -s 25 -d -1 -p AODV -e 48 -c 2 -a 0 -i 0 -k RTR 
- -t 0.107118509 -s 25 -d -1 -p AODV -e 48 -c 2 -a 0 -i 0 -k RTR
h -t 0.107118509 -s 25 -d -1 -p AODV -e 48 -c 2 -a 0 -i 0 -k RTR
r -t 0.107140816 -s 0 -d -1 -p ACK -e 38 -c 2 -a 0 -i 0 -k MAC
+ -t 0.107290666 -s 3 -d -1 -p RTS -e 44 -c 2 -a 0 -i 0 -k MAC 
- -t 0.107290666 -s 3 -d -1 -p RTS -e 44 -c 2 -a 0 -i 0 -k MAC
h -t 0.107290666 -s 3 -d -1 -p RTS -e 44 -c 2 -a 0 -i 0 -k MAC
+ -t 0.107367998 -s 12 -d -1 -p AODV -e 48 -c 2 -a 0 -i 0 -k RTR 
- -t 0.107367998 -s 12 -d -1 -p AODV -e 48 -c 2 -a 0 -i 0 -k RTR
h -t 0.107367998 -s 12 -d -1 -p AODV -e 48 -c 2 -a 0 -i 0 -k RTR
r -t 0.107642816 -s 0 -d -1 -p RTS -e 44 -c 2 -a 0 -i 0 -k MAC
+ -t 0.107652816 -s 0 -d -1 -p CTS -e 38 -c 2 -a 0 -i 0 -k MAC 
- -t 0.107652816 -s 0 -d -1 -p CTS -e 38 -c 2 -a 0 -i 0 -k MAC
h -t 0.107652816 -s 0 -d -1 -p CTS -e 38 -c 2 -a 0 -i 0 -k MAC
+ -t 0.107854604 -s 8 -d -1 -p AODV -e 48 -c 2 -a 0 -i 0 -k RTR 
- -t 0.107854604 -s 8 -d -1 -p AODV -e 48 -c 2 -a 0 -i 0 -k RTR
h -t 0.107854604 -s 8 -d -1 -p AODV -e 48 -c 2 -a 0 -i 0 -k RTR
r -t 0.107956966 -s 3 -d -1 -p CTS -e 38 -c 2 -a 0 -i 0 -k MAC
+ -t 0.107966966 -s 3 -d 0 -p AODV -e 102 -c 2 -a 0 -i 0 -k MAC 
- -t 0.107966966 -s 3 -d 0 -p AODV -e 102 -c 2 -a 0 -i 0 -k MAC
h -t 0.107966966 -s 3 -d 0 -p AODV -e 102 -c 2 -a 0 -i 0 -k MAC
+ -t 0.108155204 -s 6 -d -1 -p AODV -e 48 -c 2 -a 0 -i 0 -k RTR 
- -t 0.108155204 -s 6 -d -1 -p AODV -e 48 -c 2 -a 0 -i 0 -k RTR
h -t 0.108155204 -s 6 -d -1 -p AODV -e 48 -c 2 -a 0 -i 0 -k RTR
+ -t 0.108484633 -s 19 -d -1 -p AODV -e 48 -c 2 -a 0 -i 0 -k RTR 
- -t 0.108484633 -s 19 -d -1 -p AODV -e 48 -c 2 -a 0 -i 0 -k RTR
h -t 0.108484633 -s 19 -d -1 -p AODV -e 48 -c 2 -a 0 -i 0 -k RTR
r -t 0.108783116 -s 0 -d 0 -p AODV -e 44 -c 2 -a 0 -i 0 -k MAC
+ -t 0.108793116 -s 0 -d -1 -p ACK -e 38 -c 2 -a 0 -i 0 -k MAC 
- -t 0.108793116 -s 0 -d -1 -p ACK -e 38 -c 2 -a 0 -i 0 -k MAC
h -t 0.108793116 -s 0 -d -1 -p ACK -e 38 -c 2 -a 0 -i 0 -k MAC
+ -t 0.108808116 -s 0 -d 3 -p tcp -e 40 -c 2 -a 0 -i 0 -k RTR 
- -t 0.108808116 -s 0 -d 3 -p tcp -e 40 -c 2 -a 0 -i 0 -k RTR
h -t 0.108808116 -s 0 -d 3 -p tcp -e 40 -c 2 -a 0 -i 0 -k RTR
+ -t 0.109018636 -s 33 -d -1 -p AODV -e 48 -c 2 -a 0 -i 0 -k RTR 
- -t 0.109018636 -s 33 -d -1 -p AODV -e 48 -c 2 -a 0 -i 0 -k RTR
h -t 0.109018636 -s 33 -d -1 -p AODV -e 48 -c 2 -a 0 -i 0 -k RTR
r -t 0.109097266 -s 3 -d -1 -p ACK -e 38 -c 2 -a 0 -i 0 -k MAC
+ -t 0.109167481 -s 16 -d -1 -p AODV -e 106 -c 2 -a 0 -i 0 -k MAC 
- -t 0.109167481 -s 16 -d -1 -p AODV -e 106 -c 2 -a 0 -i 0 -k MAC
h -t 0.109167481 -s 16 -d -1 -p AODV -e 106 -c 2 -a 0 -i 0 -k MAC
+ -t 0.109935156 -s 38 -d -1 -p AODV -e 48 -c 2 -a 0 -i 0 -k RTR 
- -t 0.109935156 -s 38 -d -1 -p AODV -e 48 -c 2 -a 0 -i 0 -k RTR
h -t 0.109935156 -s 38 -d -1 -p AODV -e 48 -c 2 -a 0 -i 0 -k RTR
+ -t 0.109955671 -s 39 -d -1 -p AODV -e 48 -c 2 -a 0 -i 0 -k RTR 
- -t 0.109955671 -s 39 -d -1 -p AODV -e 48 -c 2 -a 0 -i 0 -k RTR
h -t 0.109955671 -s 39 -d -1 -p AODV -e 48 -c 2 -a 0 -i 0 -k RTR
r -t 0.110015631 -s 1 -d -1 -p AODV -e 48 -c 2 -a 0 -i 0 -k MAC
r -t 0.110015815 -s 17 -d -1 -p AODV -e 48 -c 2 -a 0 -i 0 -k MAC
r -t 0.110015815 -s 15 -d -1 -p AODV -e 48 -c 2 -a 0 -i 0 -k MAC
r -t 0.110015847 -s 2 -d -1 -p AODV -e 48 -c 2 -a 0 -i 0 -k MAC
r -t 0.110015847 -s 0 -d -1 -p AODV -e 48 -c 2 -a 0 -i 0 -k MAC
r -t 0.110015965 -s 18 -d -1 -p AODV -e 48 -c 2 -a 0 -i 0 -k MAC
r -t 0.110015965 -s 6 -d -1 -p AODV -e 48 -c 2 -a 0 -i 0 -k MAC
r -t 0.110015981 -s 25 -d -1 -p AODV -e 48 -c 2 -a 0 -i 0 -k MAC
r -t 0.110015987 -s 3 -d -1 -p AODV -e 48 -c 2 -a 0 -i 0 -k MAC
r -t 0.110016003 -s 35 -d -1 -p AODV -e 48 -c 2 -a 0 -i 0 -k MAC
r -t 0.110016068 -s 7 -d -1 -p AODV -e 48 -c 2 -a 0 -i 0 -k MAC
r -t 0.110016068 -s 5 -d -1 -p AODV -e 48 -c 2 -a 0 -i 0 -k MAC
r -t 0.110016165 -s 8 -d -1 -p AODV -e 48 -c 2 -a 0 -i 0 -k MAC
r -t 0.110016281 -s 36 -d -1 -p AODV -e 48 -c 2 -a 0 -i 0 -k MAC
r -t 0.110016298 -s 11 -d -1 -p AODV -e 48 -c 2 -a 0 -i 0 -k MAC
r -t 0.110040631 -s 1 -d -1 -p AODV -e 48 -c 2 -a 0 -i 0 -k RTR
r -t 0.110040815 -s 17 -d -1 -p AODV -e 48 -c 2 -a 0 -i 0 -k RTR
r -t 0.110040815 -s 15 -d -1 -p AODV -e 48 -c 2 -a 0 -i 0 -k RTR
r -t 0.110040847 -s 2 -d -1 -p AODV -e 48 -c 2 -a 0 -i 0 -k RTR
r -t 0.110040847 -s 0 -d -1 -p AODV -e 48 -c 2 -a 0 -i 0 -k RTR
r -t 0.110040965 -s 18 -d -1 -p AODV -e 48 -c 2 -a 0 -i 0 -k RTR
r -t 0.110040965 -s 6 -d -1 -p AODV -e 48 -c 2 -a 0 -i 0 -k RTR
r -t 0.110040981 -s 25 -d -1 -p AODV -e 48 -c 2 -a 0 -i 0 -k RTR
r -t 0.110040987 -s 3 -d -1 -p AODV -e 48 -c 2 -a 0 -i 0 -k RTR
r -t 0.110041003 -s 35 -d -1 -p AODV -e 48 -c 2 -a 0 -i 0 -k RTR
r -t 0.110041068 -s 7 -d -1 -p AODV -e 48 -c 2 -a 0 -i 0 -k RTR
r -t 0.110041068 -s 5 -d -1 -p AODV -e 48 -c 2 -a 0 -i 0 -k RTR
r -t 0.110041165 -s 8 -d -1 -p AODV -e 48 -c 2 -a 0 -i 0 -k RTR
r -t 0.110041281 -s 36 -d -1 -p AODV -e 48 -c 2 -a 0 -i 0 -k RTR
r -t 0.110041298 -s 11 -d -1 -p AODV -e 48 -c 2 -a 0 -i 0 -k RTR
+ -t 0.110086165 -s 8 -d -1 -p AODV -e 106 -c 2 -a 0 -i 0 -k MAC 
- -t 0.110086165 -s 8 -d -1 -p AODV -e 106 -c 2 -a 0 -i 0 -k MAC
h -t 0.110086165 -s 8 -d -1 -p AODV -e 106 -c 2 -a 0 -i 0 -k MAC
+ -t 0.110506575 -s 4 -d -1 -p AODV -e 48 -c 2 -a 0 -i 0 -k RTR 
- -t 0.110506575 -s 4 -d -1 -p AODV -e 48 -c 2 -a 0 -i 0 -k RTR
h -t 0.110506575 -s 4 -d -1 -p AODV -e 48 -c 2 -a 0 -i 0 -k RTR
r -t 0.110934315 -s 5 -d -1 -p AODV -e 48 -c 2 -a 0 -i 0 -k MAC
r -t 0.110934332 -s 36 -d -1 -p AODV -e 48 -c 2 -a 0 -i 0 -k MAC
r -t 0.110934412 -s 38 -d -1 -p AODV -e 48 -c 2 -a 0 -i 0 -k MAC
r -t 0.110934498 -s 3 -d -1 -p AODV -e 48 -c 2 -a 0 -i 0 -k MAC
r -t 0.110934498 -s 13 -d -1 -p AODV -e 48 -c 2 -a 0 -i 0 -k MAC
r -t 0.110934498 -s 35 -d -1 -p AODV -e 48 -c 2 -a 0 -i 0 -k MAC
r -t 0.110934530 -s 0 -d -1 -p AODV -e 48 -c 2 -a 0 -i 0 -k MAC
r -t 0.110934530 -s 10 -d -1 -p AODV -e 48 -c 2 -a 0 -i 0 -k MAC
r -t 0.110934582 -s 33 -d -1 -p AODV -e 48 -c 2 -a 0 -i 0 -k MAC
r -t 0.110934648 -s 18 -d -1 -p AODV -e 48 -c 2 -a 0 -i 0 -k MAC
r -t 0.110934648 -s 6 -d -1 -p AODV -e 48 -c 2 -a 0 -i 0 -k MAC
r -t 0.110934665 -s 25 -d -1 -p AODV -e 48 -c 2 -a 0 -i 0 -k MAC
r -t 0.110934671 -s 15 -d -1 -p AODV -e 48 -c 2 -a 0 -i 0 -k MAC
r -t 0.110934752 -s 1 -d -1 -p AODV -e 48 -c 2 -a 0 -i 0 -k MAC
r -t 0.110934752 -s 11 -d -1 -p AODV -e 48 -c 2 -a 0 -i 0 -k MAC
r -t 0.110934848 -s 16 -d -1 -p AODV -e 48 -c 2 -a 0 -i 0 -k MAC
r -t 0.110934982 -s 7 -d -1 -p AODV -e 48 -c 2 -a 0 -i 0 -k MAC