+ 20.002032 0 1 tcp 40 ------- 1 3.0 2.0 0 0
- 20.002032 0 1 tcp 40 ------- 1 3.0 2.0 0 0
+ 20.002032 0 1 tcp 40 ------- 1 4.0 2.1 0 1
- 20.002352 0 1 tcp 40 ------- 1 4.0 2.1 0 1
r 20.007352 0 1 tcp 40 ------- 1 3.0 2.0 0 0
r 20.007672 0 1 tcp 40 ------- 1 4.0 2.1 0 1
+ 20.0216 0 1 tcp 1040 ------- 1 3.0 2.0 1 4
- 20.0216 0 1 tcp 1040 ------- 1 3.0 2.0 1 4
+ 20.02192 0 1 tcp 1040 ------- 1 4.0 2.1 1 6
+ 20.022432 0 1 tcp 1040 ------- 1 3.0 2.0 2 5
+ 20.022752 0 1 tcp 1040 ------- 1 4.0 2.1 2 7
- 20.02992 0 1 tcp 1040 ------- 1 4.0 2.1 1 6
r 20.03492 0 1 tcp 1040 ------- 1 3.0 2.0 1 4
- 20.03824 0 1 tcp 1040 ------- 1 3.0 2.0 2 5
r 20.04324 0 1 tcp 1040 ------- 1 4.0 2.1 1 6
- 20.04656 0 1 tcp 1040 ------- 1 4.0 2.1 2 7
+ 20.049968 0 1 tcp 1040 ------- 1 3.0 2.0 3 10
+ 20.0508 0 1 tcp 1040 ------- 1 3.0 2.0 4 11
r 20.05156 0 1 tcp 1040 ------- 1 3.0 2.0 2 5
- 20.05488 0 1 tcp 1040 ------- 1 3.0 2.0 3 10
+ 20.058288 0 1 tcp 1040 ------- 1 4.0 2.1 3 13
+ 20.05912 0 1 tcp 1040 ------- 1 4.0 2.1 4 14
r 20.05988 0 1 tcp 1040 ------- 1 4.0 2.1 2 7
- 20.0632 0 1 tcp 1040 ------- 1 3.0 2.0 4 11
+ 20.066608 0 1 tcp 1040 ------- 1 3.0 2.0 5 16
+ 20.06744 0 1 tcp 1040 ------- 1 3.0 2.0 6 17
r 20.0682 0 1 tcp 1040 ------- 1 3.0 2.0 3 10
- 20.07152 0 1 tcp 1040 ------- 1 4.0 2.1 3 13
+ 20.074928 0 1 tcp 1040 ------- 1 4.0 2.1 5 19
+ 20.07576 0 1 tcp 1040 ------- 1 4.0 2.1 6 20
r 20.07652 0 1 tcp 1040 ------- 1 3.0 2.0 4 11
- 20.07984 0 1 tcp 1040 ------- 1 4.0 2.1 4 14
+ 20.083248 0 1 tcp 1040 ------- 1 3.0 2.0 7 22
+ 20.08408 0 1 tcp 1040 ------- 1 3.0 2.0 8 23
r 20.08484 0 1 tcp 1040 ------- 1 4.0 2.1 3 13
- 20.08816 0 1 tcp 1040 ------- 1 3.0 2.0 5 16
+ 20.091568 0 1 tcp 1040 ------- 1 3.0 2.0 9 25
+ 20.0924 0 1 tcp 1040 ------- 1 3.0 2.0 10 26
r 20.09316 0 1 tcp 1040 ------- 1 4.0 2.1 4 14
- 20.09648 0 1 tcp 1040 ------- 1 3.0 2.0 6 17
+ 20.099888 0 1 tcp 1040 ------- 1 4.0 2.1 7 28
+ 20.10072 0 1 tcp 1040 ------- 1 4.0 2.1 8 29
r 20.10148 0 1 tcp 1040 ------- 1 3.0 2.0 5 16
- 20.1048 0 1 tcp 1040 ------- 1 4.0 2.1 5 19
+ 20.108208 0 1 tcp 1040 ------- 1 4.0 2.1 9 31
+ 20.10904 0 1 tcp 1040 ------- 1 4.0 2.1 10 32
r 20.1098 0 1 tcp 1040 ------- 1 3.0 2.0 6 17
- 20.11312 0 1 tcp 1040 ------- 1 4.0 2.1 6 20
+ 20.116528 0 1 tcp 1040 ------- 1 3.0 2.0 11 34
+ 20.11736 0 1 tcp 1040 ------- 1 3.0 2.0 12 35
r 20.11812 0 1 tcp 1040 ------- 1 4.0 2.1 5 19
- 20.12144 0 1 tcp 1040 ------- 1 3.0 2.0 7 22
+ 20.124848 0 1 tcp 1040 ------- 1 3.0 2.0 13 37
+ 20.12568 0 1 tcp 1040 ------- 1 3.0 2.0 14 38
r 20.12644 0 1 tcp 1040 ------- 1 4.0 2.1 6 20
- 20.12976 0 1 tcp 1040 ------- 1 3.0 2.0 8 23
+ 20.133168 0 1 tcp 1040 ------- 1 4.0 2.1 11 40
+ 20.134 0 1 tcp 1040 ------- 1 4.0 2.1 12 41
r 20.13476 0 1 tcp 1040 ------- 1 3.0 2.0 7 22
- 20.13808 0 1 tcp 1040 ------- 1 3.0 2.0 9 25
+ 20.141488 0 1 tcp 1040 ------- 1 4.0 2.1 13 43
+ 20.14232 0 1 tcp 1040 ------- 1 4.0 2.1 14 44
r 20.14308 0 1 tcp 1040 ------- 1 3.0 2.0 8 23
- 20.1464 0 1 tcp 1040 ------- 1 3.0 2.0 10 26
+ 20.149808 0 1 tcp 1040 ------- 1 3.0 2.0 15 46
+ 20.15064 0 1 tcp 1040 ------- 1 3.0 2.0 16 47
r 20.1514 0 1 tcp 1040 ------- 1 3.0 2.0 9 25
- 20.15472 0 1 tcp 1040 ------- 1 4.0 2.1 7 28
+ 20.158128 0 1 tcp 1040 ------- 1 3.0 2.0 17 49
+ 20.15896 0 1 tcp 1040 ------- 1 3.0 2.0 18 50
r 20.15972 0 1 tcp 1040 ------- 1 3.0 2.0 10 26
- 20.16304 0 1 tcp 1040 ------- 1 4.0 2.1 8 29
+ 20.166448 0 1 tcp 1040 ------- 1 3.0 2.0 19 52
+ 20.16728 0 1 tcp 1040 ------- 1 3.0 2.0 20 53
r 20.16804 0 1 tcp 1040 ------- 1 4.0 2.1 7 28
- 20.17136 0 1 tcp 1040 ------- 1 4.0 2.1 9 31
+ 20.174768 0 1 tcp 1040 ------- 1 3.0 2.0 21 55
+ 20.1756 0 1 tcp 1040 ------- 1 3.0 2.0 22 56
r 20.17636 0 1 tcp 1040 ------- 1 4.0 2.1 8 29
- 20.17968 0 1 tcp 1040 ------- 1 4.0 2.1 10 32
+ 20.183088 0 1 tcp 1040 ------- 1 4.0 2.1 15 58
+ 20.18392 0 1 tcp 1040 ------- 1 4.0 2.1 16 59
r 20.18468 0 1 tcp 1040 ------- 1 4.0 2.1 9 31
- 20.188 0 1 tcp 1040 ------- 1 3.0 2.0 11 34
+ 20.191408 0 1 tcp 1040 ------- 1 4.0 2.1 17 61
+ 20.19224 0 1 tcp 1040 ------- 1 4.0 2.1 18 62
r 20.193 0 1 tcp 1040 ------- 1 4.0 2.1 10 32
- 20.19632 0 1 tcp 1040 ------- 1 3.0 2.0 12 35
+ 20.199728 0 1 tcp 1040 ------- 1 4.0 2.1 19 64
+ 20.20056 0 1 tcp 1040 ------- 1 4.0 2.1 20 65
r 20.20132 0 1 tcp 1040 ------- 1 3.0 2.0 11 34
- 20.20464 0 1 tcp 1040 ------- 1 3.0 2.0 13 37
+ 20.208048 0 1 tcp 1040 ------- 1 4.0 2.1 21 67
+ 20.20888 0 1 tcp 1040 ------- 1 4.0 2.1 22 68
r 20.20964 0 1 tcp 1040 ------- 1 3.0 2.0 12 35
- 20.21296 0 1 tcp 1040 ------- 1 3.0 2.0 14 38
+ 20.216368 0 1 tcp 1040 ------- 1 3.0 2.0 23 70
+ 20.2172 0 1 tcp 1040 ------- 1 3.0 2.0 24 71
r 20.21796 0 1 tcp 1040 ------- 1 3.0 2.0 13 37
- 20.22128 0 1 tcp 1040 ------- 1 4.0 2.1 11 40
+ 20.224688 0 1 tcp 1040 ------- 1 3.0 2.0 25 73
+ 20.22552 0 1 tcp 1040 ------- 1 3.0 2.0 26 74
r 20.22628 0 1 tcp 1040 ------- 1 3.0 2.0 14 38
- 20.2296 0 1 tcp 1040 ------- 1 4.0 2.1 12 41
+ 20.233008 0 1 tcp 1040 ------- 1 3.0 2.0 27 76
+ 20.23384 0 1 tcp 1040 ------- 1 3.0 2.0 28 77
r 20.2346 0 1 tcp 1040 ------- 1 4.0 2.1 11 40
- 20.23792 0 1 tcp 1040 ------- 1 4.0 2.1 13 43
+ 20.241328 0 1 tcp 1040 ------- 1 3.0 2.0 29 79
+ 20.24216 0 1 tcp 1040 ------- 1 3.0 2.0 30 80
r 20.24292 0 1 tcp 1040 ------- 1 4.0 2.1 12 41
- 20.24624 0 1 tcp 1040 ------- 1 4.0 2.1 14 44
+ 20.249648 0 1 tcp 1040 ------- 1 4.0 2.1 23 82
+ 20.25048 0 1 tcp 1040 ------- 1 4.0 2.1 24 83
r 20.25124 0 1 tcp 1040 ------- 1 4.0 2.1 13 43
- 20.25456 0 1 tcp 1040 ------- 1 3.0 2.0 15 46
+ 20.257968 0 1 tcp 1040 ------- 1 4.0 2.1 25 85
+ 20.2588 0 1 tcp 1040 ------- 1 4.0 2.1 26 86
r 20.25956 0 1 tcp 1040 ------- 1 4.0 2.1 14 44
- 20.26288 0 1 tcp 1040 ------- 1 3.0 2.0 16 47
+ 20.266288 0 1 tcp 1040 ------- 1 4.0 2.1 27 88
+ 20.26712 0 1 tcp 1040 ------- 1 4.0 2.1 28 89
r 20.26788 0 1 tcp 1040 ------- 1 3.0 2.0 15 46
- 20.2712 0 1 tcp 1040 ------- 1 3.0 2.0 17 49
+ 20.274608 0 1 tcp 1040 ------- 1 4.0 2.1 29 91
+ 20.27544 0 1 tcp 1040 ------- 1 4.0 2.1 30 92
r 20.2762 0 1 tcp 1040 ------- 1 3.0 2.0 16 47
- 20.27952 0 1 tcp 1040 ------- 1 3.0 2.0 18 50
+ 20.282928 0 1 tcp 1040 ------- 1 3.0 2.0 31 94
+ 20.28376 0 1 tcp 1040 ------- 1 3.0 2.0 32 95
r 20.28452 0 1 tcp 1040 ------- 1 3.0 2.0 17 49
- 20.28784 0 1 tcp 1040 ------- 1 3.0 2.0 19 52
+ 20.291248 0 1 tcp 1040 ------- 1 3.0 2.0 33 97
+ 20.29208 0 1 tcp 1040 ------- 1 3.0 2.0 34 98
r 20.29284 0 1 tcp 1040 ------- 1 3.0 2.0 18 50
- 20.29616 0 1 tcp 1040 ------- 1 3.0 2.0 20 53
+ 20.299568 0 1 tcp 1040 ------- 1 3.0 2.0 35 100
+ 20.3004 0 1 tcp 1040 ------- 1 3.0 2.0 36 101
r 20.30116 0 1 tcp 1040 ------- 1 3.0 2.0 19 52
- 20.30448 0 1 tcp 1040 ------- 1 3.0 2.0 21 55
+ 20.307888 0 1 tcp 1040 ------- 1 3.0 2.0 37 103
+ 20.30872 0 1 tcp 1040 ------- 1 3.0 2.0 38 104
r 20.30948 0 1 tcp 1040 ------- 1 3.0 2.0 20 53
- 20.3128 0 1 tcp 1040 ------- 1 3.0 2.0 22 56
+ 20.316208 0 1 tcp 1040 ------- 1 3.0 2.0 39 106
r 20.3178 0 1 tcp 1040 ------- 1 3.0 2.0 21 55
- 20.32112 0 1 tcp 1040 ------- 1 4.0 2.1 15 58
+ 20.324528 0 1 tcp 1040 ------- 1 3.0 2.0 40 108
r 20.32612 0 1 tcp 1040 ------- 1 3.0 2.0 22 56
- 20.32944 0 1 tcp 1040 ------- 1 4.0 2.1 16 59
+ 20.332848 0 1 tcp 1040 ------- 1 3.0 2.0 41 110
r 20.33444 0 1 tcp 1040 ------- 1 4.0 2.1 15 58
- 20.33776 0 1 tcp 1040 ------- 1 4.0 2.1 17 61
+ 20.341168 0 1 tcp 1040 ------- 1 3.0 2.0 42 112
r 20.34276 0 1 tcp 1040 ------- 1 4.0 2.1 16 59
- 20.34608 0 1 tcp 1040 ------- 1 4.0 2.1 18 62
+ 20.349488 0 1 tcp 1040 ------- 1 4.0 2.1 31 114
+ 20.35032 0 1 tcp 1040 ------- 1 4.0 2.1 32 115
r 20.35108 0 1 tcp 1040 ------- 1 4.0 2.1 17 61
- 20.3544 0 1 tcp 1040 ------- 1 4.0 2.1 19 64
+ 20.357808 0 1 tcp 1040 ------- 1 4.0 2.1 33 117
+ 20.35864 0 1 tcp 1040 ------- 1 4.0 2.1 34 118
r 20.3594 0 1 tcp 1040 ------- 1 4.0 2.1 18 62
- 20.36272 0 1 tcp 1040 ------- 1 4.0 2.1 20 65
+ 20.366128 0 1 tcp 1040 ------- 1 4.0 2.1 35 120
+ 20.36696 0 1 tcp 1040 ------- 1 4.0 2.1 36 121
r 20.36772 0 1 tcp 1040 ------- 1 4.0 2.1 19 64
- 20.37104 0 1 tcp 1040 ------- 1 4.0 2.1 21 67
+ 20.374448 0 1 tcp 1040 ------- 1 4.0 2.1 37 123
+ 20.37528 0 1 tcp 1040 ------- 1 4.0 2.1 38 124
r 20.37604 0 1 tcp 1040 ------- 1 4.0 2.1 20 65
- 20.37936 0 1 tcp 1040 ------- 1 4.0 2.1 22 68
+ 20.382768 0 1 tcp 1040 ------- 1 4.0 2.1 39 126
r 20.38436 0 1 tcp 1040 ------- 1 4.0 2.1 21 67
- 20.38768 0 1 tcp 1040 ------- 1 3.0 2.0 23 70
+ 20.391088 0 1 tcp 1040 ------- 1 4.0 2.1 40 128
r 20.39268 0 1 tcp 1040 ------- 1 4.0 2.1 22 68
- 20.396 0 1 tcp 1040 ------- 1 3.0 2.0 24 71
+ 20.399408 0 1 tcp 1040 ------- 1 4.0 2.1 41 130
r 20.401 0 1 tcp 1040 ------- 1 3.0 2.0 23 70
- 20.40432 0 1 tcp 1040 ------- 1 3.0 2.0 25 73
+ 20.407728 0 1 tcp 1040 ------- 1 4.0 2.1 42 132
r 20.40932 0 1 tcp 1040 ------- 1 3.0 2.0 24 71
- 20.41264 0 1 tcp 1040 ------- 1 3.0 2.0 26 74
+ 20.416048 0 1 tcp 1040 ------- 1 3.0 2.0 43 134
r 20.41764 0 1 tcp 1040 ------- 1 3.0 2.0 25 73
- 20.42096 0 1 tcp 1040 ------- 1 3.0 2.0 27 76
+ 20.424368 0 1 tcp 1040 ------- 1 3.0 2.0 44 136
r 20.42596 0 1 tcp 1040 ------- 1 3.0 2.0 26 74
- 20.42928 0 1 tcp 1040 ------- 1 3.0 2.0 28 77
+ 20.432688 0 1 tcp 1040 ------- 1 3.0 2.0 45 138
r 20.43428 0 1 tcp 1040 ------- 1 3.0 2.0 27 76
- 20.4376 0 1 tcp 1040 ------- 1 3.0 2.0 29 79
+ 20.441008 0 1 tcp 1040 ------- 1 3.0 2.0 46 140
r 20.4426 0 1 tcp 1040 ------- 1 3.0 2.0 28 77
- 20.44592 0 1 tcp 1040 ------- 1 3.0 2.0 30 80
+ 20.449328 0 1 tcp 1040 ------- 1 3.0 2.0 47 142
r 20.45092 0 1 tcp 1040 ------- 1 3.0 2.0 29 79
- 20.45424 0 1 tcp 1040 ------- 1 4.0 2.1 23 82
+ 20.457648 0 1 tcp 1040 ------- 1 3.0 2.0 48 144
r 20.45924 0 1 tcp 1040 ------- 1 3.0 2.0 30 80
- 20.46256 0 1 tcp 1040 ------- 1 4.0 2.1 24 83
+ 20.465968 0 1 tcp 1040 ------- 1 3.0 2.0 49 146
r 20.46756 0 1 tcp 1040 ------- 1 4.0 2.1 23 82
- 20.47088 0 1 tcp 1040 ------- 1 4.0 2.1 25 85
+ 20.474288 0 1 tcp 1040 ------- 1 3.0 2.0 50 148
r 20.47588 0 1 tcp 1040 ------- 1 4.0 2.1 24 83
- 20.4792 0 1 tcp 1040 ------- 1 4.0 2.1 26 86
+ 20.482608 0 1 tcp 1040 ------- 1 4.0 2.1 43 150
r 20.4842 0 1 tcp 1040 ------- 1 4.0 2.1 25 85
- 20.48752 0 1 tcp 1040 ------- 1 4.0 2.1 27 88
+ 20.490928 0 1 tcp 1040 ------- 1 4.0 2.1 44 152
r 20.49252 0 1 tcp 1040 ------- 1 4.0 2.1 26 86
- 20.49584 0 1 tcp 1040 ------- 1 4.0 2.1 28 89
+ 20.499248 0 1 tcp 1040 ------- 1 4.0 2.1 45 154
r 20.50084 0 1 tcp 1040 ------- 1 4.0 2.1 27 88
- 20.50416 0 1 tcp 1040 ------- 1 4.0 2.1 29 91
+ 20.507568 0 1 tcp 1040 ------- 1 4.0 2.1 46 156
r 20.50916 0 1 tcp 1040 ------- 1 4.0 2.1 28 89
- 20.51248 0 1 tcp 1040 ------- 1 4.0 2.1 30 92
+ 20.515888 0 1 tcp 1040 ------- 1 4.0 2.1 47 158
r 20.51748 0 1 tcp 1040 ------- 1 4.0 2.1 29 91
- 20.5208 0 1 tcp 1040 ------- 1 3.0 2.0 31 94
+ 20.524208 0 1 tcp 1040 ------- 1 4.0 2.1 48 160
r 20.5258 0 1 tcp 1040 ------- 1 4.0 2.1 30 92
- 20.52912 0 1 tcp 1040 ------- 1 3.0 2.0 32 95
+ 20.532528 0 1 tcp 1040 ------- 1 4.0 2.1 49 162
r 20.53412 0 1 tcp 1040 ------- 1 3.0 2.0 31 94
- 20.53744 0 1 tcp 1040 ------- 1 3.0 2.0 33 97
+ 20.540848 0 1 tcp 1040 ------- 1 4.0 2.1 50 164
r 20.54244 0 1 tcp 1040 ------- 1 3.0 2.0 32 95
- 20.54576 0 1 tcp 1040 ------- 1 3.0 2.0 34 98
+ 20.549168 0 1 tcp 1040 ------- 1 3.0 2.0 51 166
r 20.55076 0 1 tcp 1040 ------- 1 3.0 2.0 33 97
- 20.55408 0 1 tcp 1040 ------- 1 3.0 2.0 35 100
+ 20.557488 0 1 tcp 1040 ------- 1 3.0 2.0 52 168
r 20.55908 0 1 tcp 1040 ------- 1 3.0 2.0 34 98
- 20.5624 0 1 tcp 1040 ------- 1 3.0 2.0 36 101
+ 20.565808 0 1 tcp 1040 ------- 1 3.0 2.0 53 170
r 20.5674 0 1 tcp 1040 ------- 1 3.0 2.0 35 100
- 20.57072 0 1 tcp 1040 ------- 1 3.0 2.0 37 103
+ 20.574128 0 1 tcp 1040 ------- 1 3.0 2.0 54 172
r 20.57572 0 1 tcp 1040 ------- 1 3.0 2.0 36 101
- 20.57904 0 1 tcp 1040 ------- 1 3.0 2.0 38 104
+ 20.582448 0 1 tcp 1040 ------- 1 3.0 2.0 55 174
r 20.58404 0 1 tcp 1040 ------- 1 3.0 2.0 37 103
- 20.58736 0 1 tcp 1040 ------- 1 3.0 2.0 39 106
+ 20.590768 0 1 tcp 1040 ------- 1 3.0 2.0 56 176
r 20.59236 0 1 tcp 1040 ------- 1 3.0 2.0 38 104
- 20.59568 0 1 tcp 1040 ------- 1 3.0 2.0 40 108
+ 20.599088 0 1 tcp 1040 ------- 1 3.0 2.0 57 178
r 20.60068 0 1 tcp 1040 ------- 1 3.0 2.0 39 106
- 20.604 0 1 tcp 1040 ------- 1 3.0 2.0 41 110
+ 20.607408 0 1 tcp 1040 ------- 1 3.0 2.0 58 180
r 20.609 0 1 tcp 1040 ------- 1 3.0 2.0 40 108
- 20.61232 0 1 tcp 1040 ------- 1 3.0 2.0 42 112
+ 20.615728 0 1 tcp 1040 ------- 1 3.0 2.0 59 182
r 20.61732 0 1 tcp 1040 ------- 1 3.0 2.0 41 110
- 20.62064 0 1 tcp 1040 ------- 1 4.0 2.1 31 114
+ 20.624048 0 1 tcp 1040 ------- 1 3.0 2.0 60 184
r 20.62564 0 1 tcp 1040 ------- 1 3.0 2.0 42 112
- 20.62896 0 1 tcp 1040 ------- 1 4.0 2.1 32 115
+ 20.632368 0 1 tcp 1040 ------- 1 3.0 2.0 61 186
r 20.63396 0 1 tcp 1040 ------- 1 4.0 2.1 31 114
- 20.63728 0 1 tcp 1040 ------- 1 4.0 2.1 33 117
+ 20.640688 0 1 tcp 1040 ------- 1 3.0 2.0 62 188
r 20.64228 0 1 tcp 1040 ------- 1 4.0 2.1 32 115
- 20.6456 0 1 tcp 1040 ------- 1 4.0 2.1 34 118
+ 20.649008 0 1 tcp 1040 ------- 1 4.0 2.1 51 190
r 20.6506 0 1 tcp 1040 ------- 1 4.0 2.1 33 117
- 20.65392 0 1 tcp 1040 ------- 1 4.0 2.1 35 120
+ 20.657328 0 1 tcp 1040 ------- 1 4.0 2.1 52 192
r 20.65892 0 1 tcp 1040 ------- 1 4.0 2.1 34 118
- 20.66224 0 1 tcp 1040 ------- 1 4.0 2.1 36 121
+ 20.665648 0 1 tcp 1040 ------- 1 4.0 2.1 53 194
r 20.66724 0 1 tcp 1040 ------- 1 4.0 2.1 35 120
- 20.67056 0 1 tcp 1040 ------- 1 4.0 2.1 37 123
+ 20.673968 0 1 tcp 1040 ------- 1 4.0 2.1 54 196
r 20.67556 0 1 tcp 1040 ------- 1 4.0 2.1 36 121
- 20.67888 0 1 tcp 1040 ------- 1 4.0 2.1 38 124
+ 20.682288 0 1 tcp 1040 ------- 1 4.0 2.1 55 198
r 20.68388 0 1 tcp 1040 ------- 1 4.0 2.1 37 123
- 20.6872 0 1 tcp 1040 ------- 1 4.0 2.1 39 126
+ 20.690608 0 1 tcp 1040 ------- 1 4.0 2.1 56 200
r 20.6922 0 1 tcp 1040 ------- 1 4.0 2.1 38 124
- 20.69552 0 1 tcp 1040 ------- 1 4.0 2.1 40 128
+ 20.698928 0 1 tcp 1040 ------- 1 4.0 2.1 57 202
r 20.70052 0 1 tcp 1040 ------- 1 4.0 2.1 39 126
- 20.70384 0 1 tcp 1040 ------- 1 4.0 2.1 41 130
+ 20.707248 0 1 tcp 1040 ------- 1 4.0 2.1 58 204
r 20.70884 0 1 tcp 1040 ------- 1 4.0 2.1 40 128
- 20.71216 0 1 tcp 1040 ------- 1 4.0 2.1 42 132
+ 20.715568 0 1 tcp 1040 ------- 1 4.0 2.1 59 206
r 20.71716 0 1 tcp 1040 ------- 1 4.0 2.1 41 130
- 20.72048 0 1 tcp 1040 ------- 1 3.0 2.0 43 134
+ 20.723888 0 1 tcp 1040 ------- 1 4.0 2.1 60 208
r 20.72548 0 1 tcp 1040 ------- 1 4.0 2.1 42 132
- 20.7288 0 1 tcp 1040 ------- 1 3.0 2.0 44 136
+ 20.732208 0 1 tcp 1040 ------- 1 4.0 2.1 61 210
r 20.7338 0 1 tcp 1040 ------- 1 3.0 2.0 43 134
- 20.73712 0 1 tcp 1040 ------- 1 3.0 2.0 45 138
+ 20.740528 0 1 tcp 1040 ------- 1 4.0 2.1 62 212
r 20.74212 0 1 tcp 1040 ------- 1 3.0 2.0 44 136
- 20.74544 0 1 tcp 1040 ------- 1 3.0 2.0 46 140
+ 20.748848 0 1 tcp 1040 ------- 1 3.0 2.0 63 214
r 20.75044 0 1 tcp 1040 ------- 1 3.0 2.0 45 138
- 20.75376 0 1 tcp 1040 ------- 1 3.0 2.0 47 142
+ 20.757168 0 1 tcp 1040 ------- 1 3.0 2.0 64 216
r 20.75876 0 1 tcp 1040 ------- 1 3.0 2.0 46 140
- 20.76208 0 1 tcp 1040 ------- 1 3.0 2.0 48 144
+ 20.765488 0 1 tcp 1040 ------- 1 3.0 2.0 65 218
r 20.76708 0 1 tcp 1040 ------- 1 3.0 2.0 47 142
- 20.7704 0 1 tcp 1040 ------- 1 3.0 2.0 49 146
+ 20.773808 0 1 tcp 1040 ------- 1 3.0 2.0 66 220
r 20.7754 0 1 tcp 1040 ------- 1 3.0 2.0 48 144
- 20.77872 0 1 tcp 1040 ------- 1 3.0 2.0 50 148
+ 20.782128 0 1 tcp 1040 ------- 1 3.0 2.0 67 222
r 20.78372 0 1 tcp 1040 ------- 1 3.0 2.0 49 146
- 20.78704 0 1 tcp 1040 ------- 1 4.0 2.1 43 150
+ 20.790448 0 1 tcp 1040 ------- 1 3.0 2.0 68 224
r 20.79204 0 1 tcp 1040 ------- 1 3.0 2.0 50 148
- 20.79536 0 1 tcp 1040 ------- 1 4.0 2.1 44 152
+ 20.798768 0 1 tcp 1040 ------- 1 3.0 2.0 69 226
r 20.80036 0 1 tcp 1040 ------- 1 4.0 2.1 43 150
- 20.80368 0 1 tcp 1040 ------- 1 4.0 2.1 45 154
+ 20.807088 0 1 tcp 1040 ------- 1 3.0 2.0 70 228
r 20.80868 0 1 tcp 1040 ------- 1 4.0 2.1 44 152
- 20.812 0 1 tcp 1040 ------- 1 4.0 2.1 46 156
+ 20.815408 0 1 tcp 1040 ------- 1 4.0 2.1 63 230
r 20.817 0 1 tcp 1040 ------- 1 4.0 2.1 45 154
- 20.82032 0 1 tcp 1040 ------- 1 4.0 2.1 47 158
+ 20.823728 0 1 tcp 1040 ------- 1 4.0 2.1 64 232
r 20.82532 0 1 tcp 1040 ------- 1 4.0 2.1 46 156
- 20.82864 0 1 tcp 1040 ------- 1 4.0 2.1 48 160
+ 20.832048 0 1 tcp 1040 ------- 1 4.0 2.1 65 234
r 20.83364 0 1 tcp 1040 ------- 1 4.0 2.1 47 158
- 20.83696 0 1 tcp 1040 ------- 1 4.0 2.1 49 162
+ 20.840368 0 1 tcp 1040 ------- 1 4.0 2.1 66 236
r 20.84196 0 1 tcp 1040 ------- 1 4.0 2.1 48 160
- 20.84528 0 1 tcp 1040 ------- 1 4.0 2.1 50 164
+ 20.848688 0 1 tcp 1040 ------- 1 4.0 2.1 67 238
r 20.85028 0 1 tcp 1040 ------- 1 4.0 2.1 49 162
- 20.8536 0 1 tcp 1040 ------- 1 3.0 2.0 51 166
+ 20.857008 0 1 tcp 1040 ------- 1 4.0 2.1 68 240
r 20.8586 0 1 tcp 1040 ------- 1 4.0 2.1 50 164
- 20.86192 0 1 tcp 1040 ------- 1 3.0 2.0 52 168
+ 20.865328 0 1 tcp 1040 ------- 1 4.0 2.1 69 242
r 20.86692 0 1 tcp 1040 ------- 1 3.0 2.0 51 166
- 20.87024 0 1 tcp 1040 ------- 1 3.0 2.0 53 170
+ 20.873648 0 1 tcp 1040 ------- 1 4.0 2.1 70 244
r 20.87524 0 1 tcp 1040 ------- 1 3.0 2.0 52 168
- 20.87856 0 1 tcp 1040 ------- 1 3.0 2.0 54 172
+ 20.881968 0 1 tcp 1040 ------- 1 3.0 2.0 71 246
r 20.88356 0 1 tcp 1040 ------- 1 3.0 2.0 53 170
- 20.88688 0 1 tcp 1040 ------- 1 3.0 2.0 55 174
+ 20.890288 0 1 tcp 1040 ------- 1 3.0 2.0 72 248
r 20.89188 0 1 tcp 1040 ------- 1 3.0 2.0 54 172
- 20.8952 0 1 tcp 1040 ------- 1 3.0 2.0 56 176
+ 20.898608 0 1 tcp 1040 ------- 1 3.0 2.0 73 250
r 20.9002 0 1 tcp 1040 ------- 1 3.0 2.0 55 174
- 20.90352 0 1 tcp 1040 ------- 1 3.0 2.0 57 178
+ 20.906928 0 1 tcp 1040 ------- 1 3.0 2.0 74 252
r 20.90852 0 1 tcp 1040 ------- 1 3.0 2.0 56 176
- 20.91184 0 1 tcp 1040 ------- 1 3.0 2.0 58 180
+ 20.915248 0 1 tcp 1040 ------- 1 3.0 2.0 75 254
r 20.91684 0 1 tcp 1040 ------- 1 3.0 2.0 57 178
- 20.92016 0 1 tcp 1040 ------- 1 3.0 2.0 59 182
+ 20.923568 0 1 tcp 1040 ------- 1 3.0 2.0 76 256
r 20.92516 0 1 tcp 1040 ------- 1 3.0 2.0 58 180
- 20.92848 0 1 tcp 1040 ------- 1 3.0 2.0 60 184
+ 20.931888 0 1 tcp 1040 ------- 1 3.0 2.0 77 258
r 20.93348 0 1 tcp 1040 ------- 1 3.0 2.0 59 182
- 20.9368 0 1 tcp 1040 ------- 1 3.0 2.0 61 186
+ 20.940208 0 1 tcp 1040 ------- 1 3.0 2.0 78 260
r 20.9418 0 1 tcp 1040 ------- 1 3.0 2.0 60 184
- 20.94512 0 1 tcp 1040 ------- 1 3.0 2.0 62 188
+ 20.948528 0 1 tcp 1040 ------- 1 3.0 2.0 79 262
r 20.95012 0 1 tcp 1040 ------- 1 3.0 2.0 61 186
- 20.95344 0 1 tcp 1040 ------- 1 4.0 2.1 51 190
+ 20.956848 0 1 tcp 1040 ------- 1 3.0 2.0 80 264
r 20.95844 0 1 tcp 1040 ------- 1 3.0 2.0 62 188
- 20.96176 0 1 tcp 1040 ------- 1 4.0 2.1 52 192
+ 20.965168 0 1 tcp 1040 ------- 1 3.0 2.0 81 266
r 20.96676 0 1 tcp 1040 ------- 1 4.0 2.1 51 190
- 20.97008 0 1 tcp 1040 ------- 1 4.0 2.1 53 194
+ 20.973488 0 1 tcp 1040 ------- 1 3.0 2.0 82 268
r 20.97508 0 1 tcp 1040 ------- 1 4.0 2.1 52 192
- 20.9784 0 1 tcp 1040 ------- 1 4.0 2.1 54 196
+ 20.981808 0 1 tcp 1040 ------- 1 4.0 2.1 71 270
r 20.9834 0 1 tcp 1040 ------- 1 4.0 2.1 53 194
- 20.98672 0 1 tcp 1040 ------- 1 4.0 2.1 55 198
+ 20.990128 0 1 tcp 1040 ------- 1 4.0 2.1 72 272
r 20.99172 0 1 tcp 1040 ------- 1 4.0 2.1 54 196
- 20.99504 0 1 tcp 1040 ------- 1 4.0 2.1 56 200
+ 20.998448 0 1 tcp 1040 ------- 1 4.0 2.1 73 274
r 21.00004 0 1 tcp 1040 ------- 1 4.0 2.1 55 198
- 21.00336 0 1 tcp 1040 ------- 1 4.0 2.1 57 202
+ 21.006768 0 1 tcp 1040 ------- 1 4.0 2.1 74 276
r 21.00836 0 1 tcp 1040 ------- 1 4.0 2.1 56 200
- 21.01168 0 1 tcp 1040 ------- 1 4.0 2.1 58 204
+ 21.015088 0 1 tcp 1040 ------- 1 4.0 2.1 75 278
r 21.01668 0 1 tcp 1040 ------- 1 4.0 2.1 57 202
- 21.02 0 1 tcp 1040 ------- 1 4.0 2.1 59 206
+ 21.023408 0 1 tcp 1040 ------- 1 4.0 2.1 76 280
r 21.025 0 1 tcp 1040 ------- 1 4.0 2.1 58 204
- 21.02832 0 1 tcp 1040 ------- 1 4.0 2.1 60 208
+ 21.031728 0 1 tcp 1040 ------- 1 4.0 2.1 77 282
r 21.03332 0 1 tcp 1040 ------- 1 4.0 2.1 59 206
- 21.03664 0 1 tcp 1040 ------- 1 4.0 2.1 61 210
+ 21.040048 0 1 tcp 1040 ------- 1 4.0 2.1 78 284
r 21.04164 0 1 tcp 1040 ------- 1 4.0 2.1 60 208
- 21.04496 0 1 tcp 1040 ------- 1 4.0 2.1 62 212
+ 21.048368 0 1 tcp 1040 ------- 1 4.0 2.1 79 286
r 21.04996 0 1 tcp 1040 ------- 1 4.0 2.1 61 210
- 21.05328 0 1 tcp 1040 ------- 1 3.0 2.0 63 214
+ 21.056688 0 1 tcp 1040 ------- 1 4.0 2.1 80 288
r 21.05828 0 1 tcp 1040 ------- 1 4.0 2.1 62 212
- 21.0616 0 1 tcp 1040 ------- 1 3.0 2.0 64 216
+ 21.065008 0 1 tcp 1040 ------- 1 4.0 2.1 81 290
r 21.0666 0 1 tcp 1040 ------- 1 3.0 2.0 63 214
- 21.06992 0 1 tcp 1040 ------- 1 3.0 2.0 65 218
+ 21.073328 0 1 tcp 1040 ------- 1 4.0 2.1 82 292
r 21.07492 0 1 tcp 1040 ------- 1 3.0 2.0 64 216
- 21.07824 0 1 tcp 1040 ------- 1 3.0 2.0 66 220
+ 21.081648 0 1 tcp 1040 ------- 1 3.0 2.0 83 294
r 21.08324 0 1 tcp 1040 ------- 1 3.0 2.0 65 218
- 21.08656 0 1 tcp 1040 ------- 1 3.0 2.0 67 222
+ 21.089968 0 1 tcp 1040 ------- 1 3.0 2.0 84 296
r 21.09156 0 1 tcp 1040 ------- 1 3.0 2.0 66 220
- 21.09488 0 1 tcp 1040 ------- 1 3.0 2.0 68 224
+ 21.098288 0 1 tcp 1040 ------- 1 3.0 2.0 85 298
r 21.09988 0 1 tcp 1040 ------- 1 3.0 2.0 67 222
- 21.1032 0 1 tcp 1040 ------- 1 3.0 2.0 69 226
+ 21.106608 0 1 tcp 1040 ------- 1 3.0 2.0 86 300
r 21.1082 0 1 tcp 1040 ------- 1 3.0 2.0 68 224
- 21.11152 0 1 tcp 1040 ------- 1 3.0 2.0 70 228
+ 21.114928 0 1 tcp 1040 ------- 1 3.0 2.0 87 302
r 21.11652 0 1 tcp 1040 ------- 1 3.0 2.0 69 226
- 21.11984 0 1 tcp 1040 ------- 1 4.0 2.1 63 230
+ 21.123248 0 1 tcp 1040 ------- 1 3.0 2.0 88 304
r 21.12484 0 1 tcp 1040 ------- 1 3.0 2.0 70 228
- 21.12816 0 1 tcp 1040 ------- 1 4.0 2.1 64 232
+ 21.131568 0 1 tcp 1040 ------- 1 3.0 2.0 89 306
r 21.13316 0 1 tcp 1040 ------- 1 4.0 2.1 63 230
- 21.13648 0 1 tcp 1040 ------- 1 4.0 2.1 65 234
+ 21.139888 0 1 tcp 1040 ------- 1 3.0 2.0 90 308
r 21.14148 0 1 tcp 1040 ------- 1 4.0 2.1 64 232
- 21.1448 0 1 tcp 1040 ------- 1 4.0 2.1 66 236
+ 21.148208 0 1 tcp 1040 ------- 1 4.0 2.1 83 310
r 21.1498 0 1 tcp 1040 ------- 1 4.0 2.1 65 234
- 21.15312 0 1 tcp 1040 ------- 1 4.0 2.1 67 238
+ 21.156528 0 1 tcp 1040 ------- 1 4.0 2.1 84 312
r 21.15812 0 1 tcp 1040 ------- 1 4.0 2.1 66 236
- 21.16144 0 1 tcp 1040 ------- 1 4.0 2.1 68 240
+ 21.164848 0 1 tcp 1040 ------- 1 4.0 2.1 85 314
r 21.16644 0 1 tcp 1040 ------- 1 4.0 2.1 67 238
- 21.16976 0 1 tcp 1040 ------- 1 4.0 2.1 69 242
+ 21.173168 0 1 tcp 1040 ------- 1 4.0 2.1 86 316
r 21.17476 0 1 tcp 1040 ------- 1 4.0 2.1 68 240
- 21.17808 0 1 tcp 1040 ------- 1 4.0 2.1 70 244
+ 21.181488 0 1 tcp 1040 ------- 1 4.0 2.1 87 318
r 21.18308 0 1 tcp 1040 ------- 1 4.0 2.1 69 242
- 21.1864 0 1 tcp 1040 ------- 1 3.0 2.0 71 246
+ 21.189808 0 1 tcp 1040 ------- 1 4.0 2.1 88 320
r 21.1914 0 1 tcp 1040 ------- 1 4.0 2.1 70 244
- 21.19472 0 1 tcp 1040 ------- 1 3.0 2.0 72 248
+ 21.198128 0 1 tcp 1040 ------- 1 4.0 2.1 89 322
r 21.19972 0 1 tcp 1040 ------- 1 3.0 2.0 71 246
- 21.20304 0 1 tcp 1040 ------- 1 3.0 2.0 73 250
+ 21.206448 0 1 tcp 1040 ------- 1 4.0 2.1 90 324
r 21.20804 0 1 tcp 1040 ------- 1 3.0 2.0 72 248
- 21.21136 0 1 tcp 1040 ------- 1 3.0 2.0 74 252
+ 21.214768 0 1 tcp 1040 ------- 1 3.0 2.0 91 326
r 21.21636 0 1 tcp 1040 ------- 1 3.0 2.0 73 250
- 21.21968 0 1 tcp 1040 ------- 1 3.0 2.0 75 254
+ 21.223088 0 1 tcp 1040 ------- 1 3.0 2.0 92 328
r 21.22468 0 1 tcp 1040 ------- 1 3.0 2.0 74 252
- 21.228 0 1 tcp 1040 ------- 1 3.0 2.0 76 256
+ 21.231408 0 1 tcp 1040 ------- 1 3.0 2.0 93 330
r 21.233 0 1 tcp 1040 ------- 1 3.0 2.0 75 254
- 21.23632 0 1 tcp 1040 ------- 1 3.0 2.0 77 258
+ 21.239728 0 1 tcp 1040 ------- 1 3.0 2.0 94 332
r 21.24132 0 1 tcp 1040 ------- 1 3.0 2.0 76 256
- 21.24464 0 1 tcp 1040 ------- 1 3.0 2.0 78 260
+ 21.248048 0 1 tcp 1040 ------- 1 3.0 2.0 95 334
r 21.24964 0 1 tcp 1040 ------- 1 3.0 2.0 77 258
- 21.25296 0 1 tcp 1040 ------- 1 3.0 2.0 79 262
+ 21.256368 0 1 tcp 1040 ------- 1 3.0 2.0 96 336
r 21.25796 0 1 tcp 1040 ------- 1 3.0 2.0 78 260
- 21.26128 0 1 tcp 1040 ------- 1 3.0 2.0 80 264
+ 21.264688 0 1 tcp 1040 ------- 1 3.0 2.0 97 338
r 21.26628 0 1 tcp 1040 ------- 1 3.0 2.0 79 262
- 21.2696 0 1 tcp 1040 ------- 1 3.0 2.0 81 266
+ 21.273008 0 1 tcp 1040 ------- 1 3.0 2.0 98 340
r 21.2746 0 1 tcp 1040 ------- 1 3.0 2.0 80 264
- 21.27792 0 1 tcp 1040 ------- 1 3.0 2.0 82 268
+ 21.281328 0 1 tcp 1040 ------- 1 3.0 2.0 99 342
r 21.28292 0 1 tcp 1040 ------- 1 3.0 2.0 81 266
- 21.28624 0 1 tcp 1040 ------- 1 4.0 2.1 71 270
+ 21.289648 0 1 tcp 1040 ------- 1 3.0 2.0 100 344
r 21.29124 0 1 tcp 1040 ------- 1 3.0 2.0 82 268
- 21.29456 0 1 tcp 1040 ------- 1 4.0 2.1 72 272
+ 21.297968 0 1 tcp 1040 ------- 1 3.0 2.0 101 346
r 21.29956 0 1 tcp 1040 ------- 1 4.0 2.1 71 270
- 21.30288 0 1 tcp 1040 ------- 1 4.0 2.1 73 274
+ 21.306288 0 1 tcp 1040 ------- 1 3.0 2.0 102 348
r 21.30788 0 1 tcp 1040 ------- 1 4.0 2.1 72 272
- 21.3112 0 1 tcp 1040 ------- 1 4.0 2.1 74 276
+ 21.314608 0 1 tcp 1040 ------- 1 4.0 2.1 91 350
r 21.3162 0 1 tcp 1040 ------- 1 4.0 2.1 73 274
- 21.31952 0 1 tcp 1040 ------- 1 4.0 2.1 75 278
+ 21.322928 0 1 tcp 1040 ------- 1 4.0 2.1 92 352
r 21.32452 0 1 tcp 1040 ------- 1 4.0 2.1 74 276
- 21.32784 0 1 tcp 1040 ------- 1 4.0 2.1 76 280
+ 21.331248 0 1 tcp 1040 ------- 1 4.0 2.1 93 354
r 21.33284 0 1 tcp 1040 ------- 1 4.0 2.1 75 278
- 21.33616 0 1 tcp 1040 ------- 1 4.0 2.1 77 282
+ 21.339568 0 1 tcp 1040 ------- 1 4.0 2.1 94 356
r 21.34116 0 1 tcp 1040 ------- 1 4.0 2.1 76 280
- 21.34448 0 1 tcp 1040 ------- 1 4.0 2.1 78 284
+ 21.347888 0 1 tcp 1040 ------- 1 4.0 2.1 95 358
r 21.34948 0 1 tcp 1040 ------- 1 4.0 2.1 77 282
- 21.3528 0 1 tcp 1040 ------- 1 4.0 2.1 79 286
+ 21.356208 0 1 tcp 1040 ------- 1 4.0 2.1 96 360
r 21.3578 0 1 tcp 1040 ------- 1 4.0 2.1 78 284
- 21.36112 0 1 tcp 1040 ------- 1 4.0 2.1 80 288
+ 21.364528 0 1 tcp 1040 ------- 1 4.0 2.1 97 362
r 21.36612 0 1 tcp 1040 ------- 1 4.0 2.1 79 286
- 21.36944 0 1 tcp 1040 ------- 1 4.0 2.1 81 290
+ 21.372848 0 1 tcp 1040 ------- 1 4.0 2.1 98 364
r 21.37444 0 1 tcp 1040 ------- 1 4.0 2.1 80 288
- 21.37776 0 1 tcp 1040 ------- 1 4.0 2.1 82 292
+ 21.381168 0 1 tcp 1040 ------- 1 4.0 2.1 99 366
r 21.38276 0 1 tcp 1040 ------- 1 4.0 2.1 81 290
- 21.38608 0 1 tcp 1040 ------- 1 3.0 2.0 83 294
+ 21.389488 0 1 tcp 1040 ------- 1 4.0 2.1 100 368
r 21.39108 0 1 tcp 1040 ------- 1 4.0 2.1 82 292
- 21.3944 0 1 tcp 1040 ------- 1 3.0 2.0 84 296
+ 21.397808 0 1 tcp 1040 ------- 1 4.0 2.1 101 370
r 21.3994 0 1 tcp 1040 ------- 1 3.0 2.0 83 294
- 21.40272 0 1 tcp 1040 ------- 1 3.0 2.0 85 298
+ 21.406128 0 1 tcp 1040 ------- 1 4.0 2.1 102 372
r 21.40772 0 1 tcp 1040 ------- 1 3.0 2.0 84 296
- 21.41104 0 1 tcp 1040 ------- 1 3.0 2.0 86 300
+ 21.414448 0 1 tcp 1040 ------- 1 3.0 2.0 103 374
r 21.41604 0 1 tcp 1040 ------- 1 3.0 2.0 85 298
- 21.41936 0 1 tcp 1040 ------- 1 3.0 2.0 87 302
+ 21.422768 0 1 tcp 1040 ------- 1 3.0 2.0 104 376
r 21.42436 0 1 tcp 1040 ------- 1 3.0 2.0 86 300
- 21.42768 0 1 tcp 1040 ------- 1 3.0 2.0 88 304
+ 21.431088 0 1 tcp 1040 ------- 1 3.0 2.0 105 378
r 21.43268 0 1 tcp 1040 ------- 1 3.0 2.0 87 302
- 21.436 0 1 tcp 1040 ------- 1 3.0 2.0 89 306
+ 21.439408 0 1 tcp 1040 ------- 1 3.0 2.0 106 380
r 21.441 0 1 tcp 1040 ------- 1 3.0 2.0 88 304
- 21.44432 0 1 tcp 1040 ------- 1 3.0 2.0 90 308
+ 21.447728 0 1 tcp 1040 ------- 1 3.0 2.0 107 382
r 21.44932 0 1 tcp 1040 ------- 1 3.0 2.0 89 306
- 21.45264 0 1 tcp 1040 ------- 1 4.0 2.1 83 310
+ 21.456048 0 1 tcp 1040 ------- 1 3.0 2.0 108 384
r 21.45764 0 1 tcp 1040 ------- 1 3.0 2.0 90 308
- 21.46096 0 1 tcp 1040 ------- 1 4.0 2.1 84 312
+ 21.464368 0 1 tcp 1040 ------- 1 3.0 2.0 109 386
r 21.46596 0 1 tcp 1040 ------- 1 4.0 2.1 83 310
- 21.46928 0 1 tcp 1040 ------- 1 4.0 2.1 85 314
+ 21.472688 0 1 tcp 1040 ------- 1 3.0 2.0 110 388
r 21.47428 0 1 tcp 1040 ------- 1 4.0 2.1 84 312
- 21.4776 0 1 tcp 1040 ------- 1 4.0 2.1 86 316
+ 21.481008 0 1 tcp 1040 ------- 1 4.0 2.1 103 390
r 21.4826 0 1 tcp 1040 ------- 1 4.0 2.1 85 314
- 21.48592 0 1 tcp 1040 ------- 1 4.0 2.1 87 318
+ 21.489328 0 1 tcp 1040 ------- 1 4.0 2.1 104 392
r 21.49092 0 1 tcp 1040 ------- 1 4.0 2.1 86 316
- 21.49424 0 1 tcp 1040 ------- 1 4.0 2.1 88 320
+ 21.497648 0 1 tcp 1040 ------- 1 4.0 2.1 105 394
r 21.49924 0 1 tcp 1040 ------- 1 4.0 2.1 87 318
- 21.50256 0 1 tcp 1040 ------- 1 4.0 2.1 89 322
+ 21.505968 0 1 tcp 1040 ------- 1 4.0 2.1 106 396
r 21.50756 0 1 tcp 1040 ------- 1 4.0 2.1 88 320
- 21.51088 0 1 tcp 1040 ------- 1 4.0 2.1 90 324
+ 21.514288 0 1 tcp 1040 ------- 1 4.0 2.1 107 398
r 21.51588 0 1 tcp 1040 ------- 1 4.0 2.1 89 322
- 21.5192 0 1 tcp 1040 ------- 1 3.0 2.0 91 326
+ 21.522608 0 1 tcp 1040 ------- 1 4.0 2.1 108 400
r 21.5242 0 1 tcp 1040 ------- 1 4.0 2.1 90 324
- 21.52752 0 1 tcp 1040 ------- 1 3.0 2.0 92 328
+ 21.530928 0 1 tcp 1040 ------- 1 4.0 2.1 109 402
r 21.53252 0 1 tcp 1040 ------- 1 3.0 2.0 91 326
- 21.53584 0 1 tcp 1040 ------- 1 3.0 2.0 93 330
+ 21.539248 0 1 tcp 1040 ------- 1 4.0 2.1 110 404
r 21.54084 0 1 tcp 1040 ------- 1 3.0 2.0 92 328
- 21.54416 0 1 tcp 1040 ------- 1 3.0 2.0 94 332
+ 21.547568 0 1 tcp 1040 ------- 1 3.0 2.0 111 406
r 21.54916 0 1 tcp 1040 ------- 1 3.0 2.0 93 330
- 21.55248 0 1 tcp 1040 ------- 1 3.0 2.0 95 334
+ 21.555888 0 1 tcp 1040 ------- 1 3.0 2.0 112 408
r 21.55748 0 1 tcp 1040 ------- 1 3.0 2.0 94 332
- 21.5608 0 1 tcp 1040 ------- 1 3.0 2.0 96 336
+ 21.564208 0 1 tcp 1040 ------- 1 3.0 2.0 113 410
r 21.5658 0 1 tcp 1040 ------- 1 3.0 2.0 95 334
- 21.56912 0 1 tcp 1040 ------- 1 3.0 2.0 97 338
+ 21.572528 0 1 tcp 1040 ------- 1 3.0 2.0 114 412
r 21.57412 0 1 tcp 1040 ------- 1 3.0 2.0 96 336
- 21.57744 0 1 tcp 1040 ------- 1 3.0 2.0 98 340
+ 21.580848 0 1 tcp 1040 ------- 1 3.0 2.0 115 414
r 21.58244 0 1 tcp 1040 ------- 1 3.0 2.0 97 338
- 21.58576 0 1 tcp 1040 ------- 1 3.0 2.0 99 342
+ 21.589168 0 1 tcp 1040 ------- 1 3.0 2.0 116 416
r 21.59076 0 1 tcp 1040 ------- 1 3.0 2.0 98 340
- 21.59408 0 1 tcp 1040 ------- 1 3.0 2.0 100 344
+ 21.597488 0 1 tcp 1040 ------- 1 3.0 2.0 117 418
r 21.59908 0 1 tcp 1040 ------- 1 3.0 2.0 99 342
- 21.6024 0 1 tcp 1040 ------- 1 3.0 2.0 101 346
+ 21.605808 0 1 tcp 1040 ------- 1 3.0 2.0 118 420
r 21.6074 0 1 tcp 1040 ------- 1 3.0 2.0 100 344