D 0.005120292 _23_ MAC  COL 0 AODV 106 [0 ffffffff a 800] [energy 89.998229 ei 0.001 es 0.000 et 0.000 er 0.001] ------- [10:255 -1:255 29 0] [0x2 2 4 [3 0] [13 10]] (REQUEST)
D 0.005120362 _11_ MAC  COL 0 AODV 106 [0 ffffffff a 800] [energy 89.998229 ei 0.001 es 0.000 et 0.000 er 0.001] ------- [10:255 -1:255 29 0] [0x2 2 4 [3 0] [13 10]] (REQUEST)
D 0.005120381 _33_ MAC  COL 0 AODV 106 [0 ffffffff a 800] [energy 89.998229 ei 0.001 es 0.000 et 0.000 er 0.001] ------- [10:255 -1:255 29 0] [0x2 2 4 [3 0] [13 10]] (REQUEST)
D 0.005120581 _3_ MAC  COL 0 AODV 106 [0 ffffffff a 800] [energy 89.998229 ei 0.001 es 0.000 et 0.000 er 0.001] ------- [10:255 -1:255 29 0] [0x2 2 4 [3 0] [13 10]] (REQUEST)
D 0.005120592 _2_ MAC  COL 0 AODV 106 [0 ffffffff 19 800] [energy 89.998229 ei 0.001 es 0.000 et 0.000 er 0.001] ------- [25:255 -1:255 29 0] [0x2 2 4 [3 0] [13 10]] (REQUEST)
D 0.005120596 _43_ MAC  COL 0 AODV 106 [0 ffffffff a 800] [energy 89.998229 ei 0.001 es 0.000 et 0.000 er 0.001] ------- [10:255 -1:255 29 0] [0x2 2 4 [3 0] [13 10]] (REQUEST)
D 0.005120624 _48_ MAC  COL 0 AODV 106 [0 ffffffff a 800] [energy 89.998229 ei 0.001 es 0.000 et 0.000 er 0.001] ------- [10:255 -1:255 29 0] [0x2 2 4 [3 0] [13 10]] (REQUEST)
D 0.005120781 _4_ MAC  COL 0 AODV 106 [0 ffffffff a 800] [energy 89.997381 ei 0.001 es 0.000 et 0.001 er 0.001] ------- [10:255 -1:255 29 0] [0x2 2 4 [3 0] [13 10]] (REQUEST)
D 0.005120791 _28_ MAC  COL 0 AODV 106 [0 ffffffff 19 800] [energy 89.998229 ei 0.001 es 0.000 et 0.000 er 0.001] ------- [25:255 -1:255 29 0] [0x2 2 4 [3 0] [13 10]] (REQUEST)
D 0.005120794 _31_ MAC  COL 0 AODV 106 [0 ffffffff 19 800] [energy 89.998229 ei 0.001 es 0.000 et 0.000 er 0.001] ------- [25:255 -1:255 29 0] [0x2 2 4 [3 0] [13 10]] (REQUEST)
D 0.005120797 _24_ MAC  COL 0 AODV 106 [0 ffffffff a 800] [energy 89.998229 ei 0.001 es 0.000 et 0.000 er 0.001] ------- [10:255 -1:255 29 0] [0x2 2 4 [3 0] [13 10]] (REQUEST)
D 0.005120883 _13_ MAC  COL 0 AODV 106 [0 ffffffff a 800] [energy 89.995685 ei 0.001 es 0.000 et 0.003 er 0.000] ------- [10:255 -1:255 29 0] [0x2 2 4 [3 0] [13 10]] (REQUEST)
D 0.005120901 _14_ MAC  COL 0 AODV 106 [0 ffffffff 19 800] [energy 89.998229 ei 0.001 es 0.000 et 0.000 er 0.001] ------- [25:255 -1:255 29 0] [0x2 2 4 [3 0] [13 10]] (REQUEST)
D 0.005120902 _9_ MAC  COL 0 AODV 106 [0 ffffffff a 800] [energy 89.998229 ei 0.001 es 0.000 et 0.000 er 0.001] ------- [10:255 -1:255 29 0] [0x2 2 4 [3 0] [13 10]] (REQUEST)
D 0.005120922 _19_ MAC  COL 0 AODV 106 [0 ffffffff a 800] [energy 89.998229 ei 0.001 es 0.000 et 0.000 er 0.001] ------- [10:255 -1:255 29 0] [0x2 2 4 [3 0] [13 10]] (REQUEST)
D 0.005120934 _8_ MAC  COL 0 AODV 106 [0 ffffffff a 800] [energy 89.998229 ei 0.001 es 0.000 et 0.000 er 0.001] ------- [10:255 -1:255 29 0] [0x2 2 4 [3 0] [13 10]] (REQUEST)
D 0.005120947 _35_ MAC  COL 0 AODV 106 [0 ffffffff a 800] [energy 89.998229 ei 0.001 es 0.000 et 0.000 er 0.001] ------- [10:255 -1:255 29 0] [0x2 2 4 [3 0] [13 10]] (REQUEST)
D 0.005120964 _20_ MAC  COL 0 AODV 106 [0 ffffffff a 800] [energy 89.998229 ei 0.001 es 0.000 et 0.000 er 0.001] ------- [10:255 -1:255 29 0] [0x2 2 4 [3 0] [13 10]] (REQUEST)
D 0.005120970 _49_ MAC  COL 0 AODV 106 [0 ffffffff a 800] [energy 89.998229 ei 0.001 es 0.000 et 0.000 er 0.001] ------- [10:255 -1:255 29 0] [0x2 2 4 [3 0] [13 10]] (REQUEST)
D 0.005120976 _30_ MAC  COL 0 AODV 106 [0 ffffffff a 800] [energy 89.998229 ei 0.001 es 0.000 et 0.000 er 0.001] ------- [10:255 -1:255 29 0] [0x2 2 4 [3 0] [13 10]] (REQUEST)
D 0.005121055 _50_ MAC  COL 0 AODV 106 [0 ffffffff a 800] [energy 89.998229 ei 0.001 es 0.000 et 0.000 er 0.001] ------- [10:255 -1:255 29 0] [0x2 2 4 [3 0] [13 10]] (REQUEST)
D 0.005121081 _41_ MAC  COL 0 AODV 106 [0 ffffffff 19 800] [energy 89.998229 ei 0.001 es 0.000 et 0.000 er 0.001] ------- [25:255 -1:255 29 0] [0x2 2 4 [3 0] [13 10]] (REQUEST)
D 0.005121090 _51_ MAC  COL 0 AODV 106 [0 ffffffff a 800] [energy 89.997381 ei 0.001 es 0.000 et 0.001 er 0.001] ------- [10:255 -1:255 29 0] [0x2 2 4 [3 0] [13 10]] (REQUEST)
D 0.005121113 _38_ MAC  COL 0 AODV 106 [0 ffffffff a 800] [energy 89.998229 ei 0.001 es 0.000 et 0.000 er 0.001] ------- [10:255 -1:255 29 0] [0x2 2 4 [3 0] [13 10]] (REQUEST)
D 0.005121277 _15_ MAC  COL 0 AODV 106 [0 ffffffff a 800] [energy 89.998229 ei 0.001 es 0.000 et 0.000 er 0.001] ------- [10:255 -1:255 29 0] [0x2 2 4 [3 0] [13 10]] (REQUEST)
D 0.005121339 _21_ MAC  COL 0 AODV 106 [0 ffffffff a 800] [energy 89.998229 ei 0.001 es 0.000 et 0.000 er 0.001] ------- [10:255 -1:255 29 0] [0x2 2 4 [3 0] [13 10]] (REQUEST)
D 0.005121385 _36_ MAC  COL 0 AODV 106 [0 ffffffff a 800] [energy 89.998229 ei 0.001 es 0.000 et 0.000 er 0.001] ------- [10:255 -1:255 29 0] [0x2 2 4 [3 0] [13 10]] (REQUEST)
D 0.005968292 _23_ MAC  COL 0 AODV 106 [0 ffffffff 19 800] [energy 89.998229 ei 0.001 es 0.000 et 0.000 er 0.001] ------- [25:255 -1:255 29 0] [0x2 2 4 [3 0] [13 10]] (REQUEST)
D 0.005968362 _11_ MAC  COL 0 AODV 106 [0 ffffffff 19 800] [energy 89.998229 ei 0.001 es 0.000 et 0.000 er 0.001] ------- [25:255 -1:255 29 0] [0x2 2 4 [3 0] [13 10]] (REQUEST)
D 0.005968381 _33_ MAC  COL 0 AODV 106 [0 ffffffff 19 800] [energy 89.998229 ei 0.001 es 0.000 et 0.000 er 0.001] ------- [25:255 -1:255 29 0] [0x2 2 4 [3 0] [13 10]] (REQUEST)
D 0.005968581 _3_ MAC  COL 0 AODV 106 [0 ffffffff 19 800] [energy 89.998229 ei 0.001 es 0.000 et 0.000 er 0.001] ------- [25:255 -1:255 29 0] [0x2 2 4 [3 0] [13 10]] (REQUEST)
D 0.005968592 _2_ MAC  COL 0 AODV 106 [0 ffffffff a 800] [energy 89.998229 ei 0.001 es 0.000 et 0.000 er 0.001] ------- [10:255 -1:255 29 0] [0x2 2 4 [3 0] [13 10]] (REQUEST)
D 0.005968596 _43_ MAC  COL 0 AODV 106 [0 ffffffff 19 800] [energy 89.998229 ei 0.001 es 0.000 et 0.000 er 0.001] ------- [25:255 -1:255 29 0] [0x2 2 4 [3 0] [13 10]] (REQUEST)
D 0.005968624 _48_ MAC  COL 0 AODV 106 [0 ffffffff 19 800] [energy 89.998229 ei 0.001 es 0.000 et 0.000 er 0.001] ------- [25:255 -1:255 29 0] [0x2 2 4 [3 0] [13 10]] (REQUEST)
D 0.005968781 _4_ MAC  COL 0 AODV 106 [0 ffffffff 19 800] [energy 89.997381 ei 0.001 es 0.000 et 0.001 er 0.001] ------- [25:255 -1:255 29 0] [0x2 2 4 [3 0] [13 10]] (REQUEST)
D 0.005968797 _24_ MAC  COL 0 AODV 106 [0 ffffffff 19 800] [energy 89.998229 ei 0.001 es 0.000 et 0.000 er 0.001] ------- [25:255 -1:255 29 0] [0x2 2 4 [3 0] [13 10]] (REQUEST)
D 0.005968883 _13_ MAC  COL 0 AODV 106 [0 ffffffff 19 800] [energy 89.995685 ei 0.001 es 0.000 et 0.003 er 0.000] ------- [25:255 -1:255 29 0] [0x2 2 4 [3 0] [13 10]] (REQUEST)
D 0.005968902 _9_ MAC  COL 0 AODV 106 [0 ffffffff 19 800] [energy 89.998229 ei 0.001 es 0.000 et 0.000 er 0.001] ------- [25:255 -1:255 29 0] [0x2 2 4 [3 0] [13 10]] (REQUEST)
D 0.005968922 _19_ MAC  COL 0 AODV 106 [0 ffffffff 19 800] [energy 89.998229 ei 0.001 es 0.000 et 0.000 er 0.001] ------- [25:255 -1:255 29 0] [0x2 2 4 [3 0] [13 10]] (REQUEST)
D 0.005968934 _8_ MAC  COL 0 AODV 106 [0 ffffffff 19 800] [energy 89.998229 ei 0.001 es 0.000 et 0.000 er 0.001] ------- [25:255 -1:255 29 0] [0x2 2 4 [3 0] [13 10]] (REQUEST)
D 0.005968947 _35_ MAC  COL 0 AODV 106 [0 ffffffff 19 800] [energy 89.998229 ei 0.001 es 0.000 et 0.000 er 0.001] ------- [25:255 -1:255 29 0] [0x2 2 4 [3 0] [13 10]] (REQUEST)
D 0.005968964 _20_ MAC  COL 0 AODV 106 [0 ffffffff 19 800] [energy 89.998229 ei 0.001 es 0.000 et 0.000 er 0.001] ------- [25:255 -1:255 29 0] [0x2 2 4 [3 0] [13 10]] (REQUEST)
D 0.005968970 _49_ MAC  COL 0 AODV 106 [0 ffffffff 19 800] [energy 89.998229 ei 0.001 es 0.000 et 0.000 er 0.001] ------- [25:255 -1:255 29 0] [0x2 2 4 [3 0] [13 10]] (REQUEST)
D 0.005968976 _30_ MAC  COL 0 AODV 106 [0 ffffffff 19 800] [energy 89.998229 ei 0.001 es 0.000 et 0.000 er 0.001] ------- [25:255 -1:255 29 0] [0x2 2 4 [3 0] [13 10]] (REQUEST)
D 0.007301054 _3_ MAC  COL 0 AODV 106 [0 ffffffff 30 800] [energy 89.997448 ei 0.001 es 0.000 et 0.000 er 0.001] ------- [48:255 -1:255 29 0] [0x2 2 3 [2 0] [13 8]] (REQUEST)
D 0.007301062 _11_ MAC  COL 0 AODV 106 [0 ffffffff 1d 800] [energy 89.997448 ei 0.001 es 0.000 et 0.000 er 0.001] ------- [29:255 -1:255 29 0] [0x2 2 1 [0 0] [13 4]] (REQUEST)
D 0.007301065 _26_ MAC  COL 0 AODV 106 [0 ffffffff 1d 800] [energy 89.996600 ei 0.001 es 0.000 et 0.001 er 0.001] ------- [29:255 -1:255 29 0] [0x2 2 1 [0 0] [13 4]] (REQUEST)
D 0.007301072 _26_ MAC  COL 0 AODV 106 [0 ffffffff 2d 800] [energy 89.996600 ei 0.001 es 0.000 et 0.001 er 0.001] ------- [45:255 -1:255 29 0] [0x2 2 1 [0 0] [13 4]] (REQUEST)
D 0.007301078 _33_ MAC  COL 0 AODV 106 [0 ffffffff 1d 800] [energy 89.997448 ei 0.001 es 0.000 et 0.000 er 0.001] ------- [29:255 -1:255 29 0] [0x2 2 1 [0 0] [13 4]] (REQUEST)
D 0.007301106 _52_ MAC  COL 0 AODV 106 [0 ffffffff 1d 800] [energy 89.997448 ei 0.001 es 0.000 et 0.000 er 0.001] ------- [29:255 -1:255 29 0] [0x2 2 1 [0 0] [13 4]] (REQUEST)
D 0.007301116 _42_ MAC  COL 0 AODV 106 [0 ffffffff 1d 800] [energy 89.997448 ei 0.001 es 0.000 et 0.000 er 0.001] ------- [29:255 -1:255 29 0] [0x2 2 1 [0 0] [13 4]] (REQUEST)
D 0.007301128 _11_ MAC  COL 0 AODV 106 [0 ffffffff 30 800] [energy 89.997448 ei 0.001 es 0.000 et 0.000 er 0.001] ------- [48:255 -1:255 29 0] [0x2 2 3 [2 0] [13 8]] (REQUEST)
D 0.007301134 _42_ MAC  COL 0 AODV 106 [0 ffffffff 2e 800] [energy 89.997448 ei 0.001 es 0.000 et 0.000 er 0.001] ------- [46:255 -1:255 28 0] [0x2 3 4 [3 0] [13 10]] (REQUEST)
D 0.007301134 _49_ MAC  COL 0 AODV 106 [0 ffffffff 2d 800] [energy 89.997448 ei 0.001 es 0.000 et 0.000 er 0.001] ------- [45:255 -1:255 29 0] [0x2 2 1 [0 0] [13 4]] (REQUEST)
D 0.007301138 _1_ MAC  COL 0 AODV 106 [0 ffffffff 1d 800] [energy 89.997448 ei 0.001 es 0.000 et 0.000 er 0.001] ------- [29:255 -1:255 29 0] [0x2 2 1 [0 0] [13 4]] (REQUEST)
D 0.007301142 _3_ MAC  COL 0 AODV 106 [0 ffffffff 1d 800] [energy 89.997448 ei 0.001 es 0.000 et 0.000 er 0.001] ------- [29:255 -1:255 29 0] [0x2 2 1 [0 0] [13 4]] (REQUEST)
D 0.007301164 _10_ MAC  COL 0 AODV 106 [0 ffffffff 1d 800] [energy 89.996600 ei 0.001 es 0.000 et 0.001 er 0.001] ------- [29:255 -1:255 29 0] [0x2 2 1 [0 0] [13 4]] (REQUEST)
D 0.007301167 _33_ MAC  COL 0 AODV 106 [0 ffffffff 30 800] [energy 89.997448 ei 0.001 es 0.000 et 0.000 er 0.001] ------- [48:255 -1:255 29 0] [0x2 2 3 [2 0] [13 8]] (REQUEST)
D 0.007301182 _5_ MAC  COL 0 AODV 106 [0 ffffffff 1d 800] [energy 89.997448 ei 0.001 es 0.000 et 0.000 er 0.001] ------- [29:255 -1:255 29 0] [0x2 2 1 [0 0] [13 4]] (REQUEST)
D 0.007301185 _19_ MAC  COL 0 AODV 106 [0 ffffffff 1d 800] [energy 89.997448 ei 0.001 es 0.000 et 0.000 er 0.001] ------- [29:255 -1:255 29 0] [0x2 2 1 [0 0] [13 4]] (REQUEST)
D 0.007301187 _49_ MAC  COL 0 AODV 106 [0 ffffffff 1d 800] [energy 89.997448 ei 0.001 es 0.000 et 0.000 er 0.001] ------- [29:255 -1:255 29 0] [0x2 2 1 [0 0] [13 4]] (REQUEST)
D 0.007301188 _19_ MAC  COL 0 AODV 106 [0 ffffffff 2d 800] [energy 89.997448 ei 0.001 es 0.000 et 0.000 er 0.001] ------- [45:255 -1:255 29 0] [0x2 2 1 [0 0] [13 4]] (REQUEST)
D 0.007301195 _10_ MAC  COL 0 AODV 106 [0 ffffffff 2d 800] [energy 89.996600 ei 0.001 es 0.000 et 0.001 er 0.001] ------- [45:255 -1:255 29 0] [0x2 2 1 [0 0] [13 4]] (REQUEST)
D 0.007301197 _49_ MAC  COL 0 AODV 106 [0 ffffffff 30 800] [energy 89.997448 ei 0.001 es 0.000 et 0.000 er 0.001] ------- [48:255 -1:255 29 0] [0x2 2 3 [2 0] [13 8]] (REQUEST)
D 0.007301202 _22_ MAC  COL 0 AODV 106 [0 ffffffff 1d 800] [energy 89.997448 ei 0.001 es 0.000 et 0.000 er 0.001] ------- [29:255 -1:255 29 0] [0x2 2 1 [0 0] [13 4]] (REQUEST)
D 0.007301209 _52_ MAC  COL 0 AODV 106 [0 ffffffff 2d 800] [energy 89.997448 ei 0.001 es 0.000 et 0.000 er 0.001] ------- [45:255 -1:255 29 0] [0x2 2 1 [0 0] [13 4]] (REQUEST)
D 0.007301217 _52_ MAC  COL 0 AODV 106 [0 ffffffff 2e 800] [energy 89.997448 ei 0.001 es 0.000 et 0.000 er 0.001] ------- [46:255 -1:255 28 0] [0x2 3 4 [3 0] [13 10]] (REQUEST)
D 0.007301234 _2_ MAC  COL 0 AODV 106 [0 ffffffff 1d 800] [energy 89.997448 ei 0.001 es 0.000 et 0.000 er 0.001] ------- [29:255 -1:255 29 0] [0x2 2 1 [0 0] [13 4]] (REQUEST)
D 0.007301235 _38_ MAC  COL 0 AODV 106 [0 ffffffff 2e 800] [energy 89.997448 ei 0.001 es 0.000 et 0.000 er 0.001] ------- [46:255 -1:255 28 0] [0x2 3 4 [3 0] [13 10]] (REQUEST)
D 0.007301237 _39_ MAC  COL 0 AODV 106 [0 ffffffff 1d 800] [energy 89.997448 ei 0.001 es 0.000 et 0.000 er 0.001] ------- [29:255 -1:255 29 0] [0x2 2 1 [0 0] [13 4]] (REQUEST)
D 0.007301242 _23_ MAC  COL 0 AODV 106 [0 ffffffff 1d 800] [energy 89.997448 ei 0.001 es 0.000 et 0.000 er 0.001] ------- [29:255 -1:255 29 0] [0x2 2 1 [0 0] [13 4]] (REQUEST)
D 0.007301247 _1_ MAC  COL 0 AODV 106 [0 ffffffff 30 800] [energy 89.997448 ei 0.001 es 0.000 et 0.000 er 0.001] ------- [48:255 -1:255 29 0] [0x2 2 3 [2 0] [13 8]] (REQUEST)
D 0.007301249 _42_ MAC  COL 0 AODV 106 [0 ffffffff 2d 800] [energy 89.997448 ei 0.001 es 0.000 et 0.000 er 0.001] ------- [45:255 -1:255 29 0] [0x2 2 1 [0 0] [13 4]] (REQUEST)
D 0.007301258 _43_ MAC  COL 0 AODV 106 [0 ffffffff 1d 800] [energy 89.997448 ei 0.001 es 0.000 et 0.000 er 0.001] ------- [29:255 -1:255 29 0] [0x2 2 1 [0 0] [13 4]] (REQUEST)
D 0.007301261 _5_ MAC  COL 0 AODV 106 [0 ffffffff 2d 800] [energy 89.997448 ei 0.001 es 0.000 et 0.000 er 0.001] ------- [45:255 -1:255 29 0] [0x2 2 1 [0 0] [13 4]] (REQUEST)
D 0.007301262 _53_ MAC  COL 0 AODV 106 [0 ffffffff 1d 800] [energy 89.997448 ei 0.001 es 0.000 et 0.000 er 0.001] ------- [29:255 -1:255 29 0] [0x2 2 1 [0 0] [13 4]] (REQUEST)
D 0.007301279 _53_ MAC  COL 0 AODV 106 [0 ffffffff 2d 800] [energy 89.997448 ei 0.001 es 0.000 et 0.000 er 0.001] ------- [45:255 -1:255 29 0] [0x2 2 1 [0 0] [13 4]] (REQUEST)
D 0.007301279 _24_ MAC  COL 0 AODV 106 [0 ffffffff 30 800] [energy 89.997448 ei 0.001 es 0.000 et 0.000 er 0.001] ------- [48:255 -1:255 29 0] [0x2 2 3 [2 0] [13 8]] (REQUEST)
D 0.007301283 _7_ MAC  COL 0 AODV 106 [0 ffffffff 1d 800] [energy 89.997448 ei 0.001 es 0.000 et 0.000 er 0.001] ------- [29:255 -1:255 29 0] [0x2 2 1 [0 0] [13 4]] (REQUEST)
D 0.007301296 _25_ MAC  COL 0 AODV 106 [0 ffffffff 1d 800] [energy 89.996600 ei 0.001 es 0.000 et 0.001 er 0.001] ------- [29:255 -1:255 29 0] [0x2 2 1 [0 0] [13 4]] (REQUEST)
D 0.007301298 _35_ MAC  COL 0 AODV 106 [0 ffffffff 30 800] [energy 89.997448 ei 0.001 es 0.000 et 0.000 er 0.001] ------- [48:255 -1:255 29 0] [0x2 2 3 [2 0] [13 8]] (REQUEST)
D 0.007301306 _7_ MAC  COL 0 AODV 106 [0 ffffffff 2d 800] [energy 89.997448 ei 0.001 es 0.000 et 0.000 er 0.001] ------- [45:255 -1:255 29 0] [0x2 2 1 [0 0] [13 4]] (REQUEST)
D 0.007301314 _23_ MAC  COL 0 AODV 106 [0 ffffffff 30 800] [energy 89.997448 ei 0.001 es 0.000 et 0.000 er 0.001] ------- [48:255 -1:255 29 0] [0x2 2 3 [2 0] [13 8]] (REQUEST)
D 0.007301322 _38_ MAC  COL 0 AODV 106 [0 ffffffff 2d 800] [energy 89.997448 ei 0.001 es 0.000 et 0.000 er 0.001] ------- [45:255 -1:255 29 0] [0x2 2 1 [0 0] [13 4]] (REQUEST)
D 0.007301322 _30_ MAC  COL 0 AODV 106 [0 ffffffff 30 800] [energy 89.997448 ei 0.001 es 0.000 et 0.000 er 0.001] ------- [48:255 -1:255 29 0] [0x2 2 3 [2 0] [13 8]] (REQUEST)
D 0.007301324 _35_ MAC  COL 0 AODV 106 [0 ffffffff 1d 800] [energy 89.997448 ei 0.001 es 0.000 et 0.000 er 0.001] ------- [29:255 -1:255 29 0] [0x2 2 1 [0 0] [13 4]] (REQUEST)
D 0.007301331 _19_ MAC  COL 0 AODV 106 [0 ffffffff 30 800] [energy 89.997448 ei 0.001 es 0.000 et 0.000 er 0.001] ------- [48:255 -1:255 29 0] [0x2 2 3 [2 0] [13 8]] (REQUEST)
D 0.007301335 _39_ MAC  COL 0 AODV 106 [0 ffffffff 30 800] [energy 89.997448 ei 0.001 es 0.000 et 0.000 er 0.001] ------- [48:255 -1:255 29 0] [0x2 2 3 [2 0] [13 8]] (REQUEST)
D 0.007301340 _2_ MAC  COL 0 AODV 106 [0 ffffffff 30 800] [energy 89.997448 ei 0.001 es 0.000 et 0.000 er 0.001] ------- [48:255 -1:255 29 0] [0x2 2 3 [2 0] [13 8]] (REQUEST)
D 0.007301344 _24_ MAC  COL 0 AODV 106 [0 ffffffff 1d 800] [energy 89.997448 ei 0.001 es 0.000 et 0.000 er 0.001] ------- [29:255 -1:255 29 0] [0x2 2 1 [0 0] [13 4]] (REQUEST)
D 0.007301346 _30_ MAC  COL 0 AODV 106 [0 ffffffff 1d 800] [energy 89.997448 ei 0.001 es 0.000 et 0.000 er 0.001] ------- [29:255 -1:255 29 0] [0x2 2 1 [0 0] [13 4]] (REQUEST)
D 0.007301361 _5_ MAC  COL 0 AODV 106 [0 ffffffff 30 800] [energy 89.997448 ei 0.001 es 0.000 et 0.000 er 0.001] ------- [48:255 -1:255 29 0] [0x2 2 3 [2 0] [13 8]] (REQUEST)
D 0.007301362 _43_ MAC  COL 0 AODV 106 [0 ffffffff 30 800] [energy 89.997448 ei 0.001 es 0.000 et 0.000 er 0.001] ------- [48:255 -1:255 29 0] [0x2 2 3 [2 0] [13 8]] (REQUEST)
D 0.007301367 _15_ MAC  COL 0 AODV 106 [0 ffffffff 1d 800] [energy 89.997448 ei 0.001 es 0.000 et 0.000 er 0.001] ------- [29:255 -1:255 29 0] [0x2 2 1 [0 0] [13 4]] (REQUEST)
D 0.007301369 _7_ MAC  COL 0 AODV 106 [0 ffffffff 30 800] [energy 89.997448 ei 0.001 es 0.000 et 0.000 er 0.001] ------- [48:255 -1:255 29 0] [0x2 2 3 [2 0] [13 8]] (REQUEST)
D 0.007301372 _5_ MAC  COL 0 AODV 106 [0 ffffffff 25 800] [energy 89.997448 ei 0.001 es 0.000 et 0.000 er 0.001] ------- [37:255 -1:255 29 0] [0x2 2 4 [3 0] [13 10]] (REQUEST)
D 0.007301381 _26_ MAC  COL 0 AODV 106 [0 ffffffff 30 800] [energy 89.996600 ei 0.001 es 0.000 et 0.001 er 0.001] ------- [48:255 -1:255 29 0] [0x2 2 3 [2 0] [13 8]] (REQUEST)
D 0.007301385 _25_ MAC  COL 0 AODV 106 [0 ffffffff 30 800] [energy 89.996600 ei 0.001 es 0.000 et 0.001 er 0.001] ------- [48:255 -1:255 29 0] [0x2 2 3 [2 0] [13 8]] (REQUEST)
D 0.007301390 _0_ MAC  COL 0 AODV 106 [0 ffffffff 30 800] [energy 89.997448 ei 0.001 es 0.000 et 0.000 er 0.001] ------- [48:255 -1:255 29 0] [0x2 2 3 [2 0] [13 8]] (REQUEST)
D 0.007301390 _40_ MAC  COL 0 AODV 106 [0 ffffffff 1d 800] [energy 89.997448 ei 0.001 es 0.000 et 0.000 er 0.001] ------- [29:255 -1:255 29 0] [0x2 2 1 [0 0] [13 4]] (REQUEST)
D 0.007301397 _15_ MAC  COL 0 AODV 106 [0 ffffffff 2e 800] [energy 89.997448 ei 0.001 es 0.000 et 0.000 er 0.001] ------- [46:255 -1:255 28 0] [0x2 3 4 [3 0] [13 10]] (REQUEST)
D 0.007301421 _0_ MAC  COL 0 AODV 106 [0 ffffffff 1d 800] [energy 89.997448 ei 0.001 es 0.000 et 0.000 er 0.001] ------- [29:255 -1:255 29 0] [0x2 2 1 [0 0] [13 4]] (REQUEST)
D 0.007301440 _10_ MAC  COL 0 AODV 106 [0 ffffffff 30 800] [energy 89.996600 ei 0.001 es 0.000 et 0.001 er 0.001] ------- [48:255 -1:255 29 0] [0x2 2 3 [2 0] [13 8]] (REQUEST)
D 0.007301442 _3_ MAC  COL 0 AODV 106 [0 ffffffff 2d 800] [energy 89.997448 ei 0.001 es 0.000 et 0.000 er 0.001] ------- [45:255 -1:255 29 0] [0x2 2 1 [0 0] [13 4]] (REQUEST)
D 0.007301454 _6_ MAC  COL 0 AODV 106 [0 ffffffff 30 800] [energy 89.997448 ei 0.001 es 0.000 et 0.000 er 0.001] ------- [48:255 -1:255 29 0] [0x2 2 3 [2 0] [13 8]] (REQUEST)
D 0.007301462 _10_ MAC  COL 0 AODV 106 [0 ffffffff 2e 800] [energy 89.996600 ei 0.001 es 0.000 et 0.001 er 0.001] ------- [46:255 -1:255 28 0] [0x2 3 4 [3 0] [13 10]] (REQUEST)
D 0.007301465 _5_ MAC  COL 0 AODV 106 [0 ffffffff 2e 800] [energy 89.997448 ei 0.001 es 0.000 et 0.000 er 0.001] ------- [46:255 -1:255 28 0] [0x2 3 4 [3 0] [13 10]] (REQUEST)
D 0.007301465 _53_ MAC  COL 0 AODV 106 [0 ffffffff 25 800] [energy 89.997448 ei 0.001 es 0.000 et 0.000 er 0.001] ------- [37:255 -1:255 29 0] [0x2 2 4 [3 0] [13 10]] (REQUEST)
D 0.007301471 _12_ MAC  COL 0 AODV 106 [0 ffffffff 2e 800] [energy 89.997448 ei 0.001 es 0.000 et 0.000 er 0.001] ------- [46:255 -1:255 28 0] [0x2 3 4 [3 0] [13 10]] (REQUEST)
D 0.007301476 _52_ MAC  COL 0 AODV 106 [0 ffffffff 30 800] [energy 89.997448 ei 0.001 es 0.000 et 0.000 er 0.001] ------- [48:255 -1:255 29 0] [0x2 2 3 [2 0] [13 8]] (REQUEST)
D 0.007301479 _11_ MAC  COL 0 AODV 106 [0 ffffffff 2d 800] [energy 89.997448 ei 0.001 es 0.000 et 0.000 er 0.001] ------- [45:255 -1:255 29 0] [0x2 2 1 [0 0] [13 4]] (REQUEST)
D 0.007301485 _7_ MAC  COL 0 AODV 106 [0 ffffffff 8 800] [energy 89.997448 ei 0.001 es 0.000 et 0.000 er 0.001] ------- [8:255 -1:255 29 0] [0x2 2 1 [0 0] [13 4]] (REQUEST)
D 0.007301489 _28_ MAC  COL 0 AODV 106 [0 ffffffff 1d 800] [energy 89.997447 ei 0.001 es 0.000 et 0.000 er 0.001] ------- [29:255 -1:255 29 0] [0x2 2 1 [0 0] [13 4]] (REQUEST)
D 0.007301489 _6_ MAC  COL 0 AODV 106 [0 ffffffff 1d 800] [energy 89.997448 ei 0.001 es 0.000 et 0.000 er 0.001] ------- [29:255 -1:255 29 0] [0x2 2 1 [0 0] [13 4]] (REQUEST)
D 0.007301495 _10_ MAC  COL 0 AODV 106 [0 ffffffff 8 800] [energy 89.996600 ei 0.001 es 0.000 et 0.001 er 0.001] ------- [8:255 -1:255 29 0] [0x2 2 1 [0 0] [13 4]] (REQUEST)
D 0.007301498 _21_ MAC  COL 0 AODV 106 [0 ffffffff 1d 800] [energy 89.997448 ei 0.001 es 0.000 et 0.000 er 0.001] ------- [29:255 -1:255 29 0] [0x2 2 1 [0 0] [13 4]] (REQUEST)
D 0.007301498 _40_ MAC  COL 0 AODV 106 [0 ffffffff 30 800] [energy 89.997448 ei 0.001 es 0.000 et 0.000 er 0.001] ------- [48:255 -1:255 29 0] [0x2 2 3 [2 0] [13 8]] (REQUEST)
D 0.007301499 _21_ MAC  COL 0 AODV 106 [0 ffffffff 2e 800] [energy 89.997448 ei 0.001 es 0.000 et 0.000 er 0.001] ------- [46:255 -1:255 28 0] [0x2 3 4 [3 0] [13 10]] (REQUEST)
D 0.007301504 _35_ MAC  COL 0 AODV 106 [0 ffffffff 2d 800] [energy 89.997448 ei 0.001 es 0.000 et 0.000 er 0.001] ------- [45:255 -1:255 29 0] [0x2 2 1 [0 0] [13 4]] (REQUEST)
D 0.007301505 _12_ MAC  COL 0 AODV 106 [0 ffffffff 1d 800] [energy 89.997448 ei 0.001 es 0.000 et 0.000 er 0.001] ------- [29:255 -1:255 29 0] [0x2 2 1 [0 0] [13 4]] (REQUEST)
D 0.007301511 _15_ MAC  COL 0 AODV 106 [0 ffffffff 2d 800] [energy 89.997448 ei 0.001 es 0.000 et 0.000 er 0.001] ------- [45:255 -1:255 29 0] [0x2 2 1 [0 0] [13 4]] (REQUEST)
D 0.007301518 _30_ MAC  COL 0 AODV 106 [0 ffffffff 2d 800] [energy 89.997448 ei 0.001 es 0.000 et 0.000 er 0.001] ------- [45:255 -1:255 29 0] [0x2 2 1 [0 0] [13 4]] (REQUEST)
D 0.007301522 _33_ MAC  COL 0 AODV 106 [0 ffffffff 2d 800] [energy 89.997448 ei 0.001 es 0.000 et 0.000 er 0.001] ------- [45:255 -1:255 29 0] [0x2 2 1 [0 0] [13 4]] (REQUEST)
D 0.007301553 _36_ MAC  COL 0 AODV 106 [0 ffffffff 1d 800] [energy 89.997448 ei 0.001 es 0.000 et 0.000 er 0.001] ------- [29:255 -1:255 29 0] [0x2 2 1 [0 0] [13 4]] (REQUEST)
D 0.007301557 _36_ MAC  COL 0 AODV 106 [0 ffffffff 2d 800] [energy 89.997448 ei 0.001 es 0.000 et 0.000 er 0.001] ------- [45:255 -1:255 29 0] [0x2 2 1 [0 0] [13 4]] (REQUEST)
D 0.007301558 _7_ MAC  COL 0 AODV 106 [0 ffffffff 25 800] [energy 89.997448 ei 0.001 es 0.000 et 0.000 er 0.001] ------- [37:255 -1:255 29 0] [0x2 2 4 [3 0] [13 10]] (REQUEST)
D 0.007301560 _31_ MAC  COL 0 AODV 106 [0 ffffffff 1d 800] [energy 89.997447 ei 0.001 es 0.000 et 0.000 er 0.001] ------- [29:255 -1:255 29 0] [0x2 2 1 [0 0] [13 4]] (REQUEST)
D 0.007301589 _1_ MAC  COL 0 AODV 106 [0 ffffffff 2d 800] [energy 89.997448 ei 0.001 es 0.000 et 0.000 er 0.001] ------- [45:255 -1:255 29 0] [0x2 2 1 [0 0] [13 4]] (REQUEST)
D 0.007301590 _26_ MAC  COL 0 AODV 106 [0 ffffffff 2e 800] [energy 89.996600 ei 0.001 es 0.000 et 0.001 er 0.001] ------- [46:255 -1:255 28 0] [0x2 3 4 [3 0] [13 10]] (REQUEST)
D 0.007301590 _28_ MAC  COL 0 AODV 106 [0 ffffffff 30 800] [energy 89.997447 ei 0.001 es 0.000 et 0.000 er 0.001] ------- [48:255 -1:255 29 0] [0x2 2 3 [2 0] [13 8]] (REQUEST)
D 0.007301594 _17_ MAC  COL 0 AODV 106 [0 ffffffff 2e 800] [energy 89.997448 ei 0.001 es 0.000 et 0.000 er 0.001] ------- [46:255 -1:255 28 0] [0x2 3 4 [3 0] [13 10]] (REQUEST)
D 0.007301595 _24_ MAC  COL 0 AODV 106 [0 ffffffff 2d 800] [energy 89.997448 ei 0.001 es 0.000 et 0.000 er 0.001] ------- [45:255 -1:255 29 0] [0x2 2 1 [0 0] [13 4]] (REQUEST)
D 0.007301603 _0_ MAC  COL 0 AODV 106 [0 ffffffff 2d 800] [energy 89.997448 ei 0.001 es 0.000 et 0.000 er 0.001] ------- [45:255 -1:255 29 0] [0x2 2 1 [0 0] [13 4]] (REQUEST)
D 0.007301605 _26_ MAC  COL 0 AODV 106 [0 ffffffff 8 800] [energy 89.996600 ei 0.001 es 0.000 et 0.001 er 0.001] ------- [8:255 -1:255 29 0] [0x2 2 1 [0 0] [13 4]] (REQUEST)
D 0.007301610 _21_ MAC  COL 0 AODV 106 [0 ffffffff 2d 800] [energy 89.997448 ei 0.001 es 0.000 et 0.000 er 0.001] ------- [45:255 -1:255 29 0] [0x2 2 1 [0 0] [13 4]] (REQUEST)
D 0.007301614 _12_ MAC  COL 0 AODV 106 [0 ffffffff 2d 800] [energy 89.997448 ei 0.001 es 0.000 et 0.000 er 0.001] ------- [45:255 -1:255 29 0] [0x2 2 1 [0 0] [13 4]] (REQUEST)
D 0.007301616 _21_ MAC  COL 0 AODV 106 [0 ffffffff 25 800] [energy 89.997448 ei 0.001 es 0.000 et 0.000 er 0.001] ------- [37:255 -1:255 29 0] [0x2 2 4 [3 0] [13 10]] (REQUEST)
D 0.007301616 _18_ MAC  COL 0 AODV 106 [0 ffffffff 2e 800] [energy 89.997448 ei 0.001 es 0.000 et 0.000 er 0.001] ------- [46:255 -1:255 28 0] [0x2 3 4 [3 0] [13 10]] (REQUEST)
D 0.007301616 _36_ MAC  COL 0 AODV 106 [0 ffffffff 2e 800] [energy 89.997448 ei 0.001 es 0.000 et 0.000 er 0.001] ------- [46:255 -1:255 28 0] [0x2 3 4 [3 0] [13 10]] (REQUEST)
D 0.007301635 _42_ MAC  COL 0 AODV 106 [0 ffffffff 30 800] [energy 89.997448 ei 0.001 es 0.000 et 0.000 er 0.001] ------- [48:255 -1:255 29 0] [0x2 2 3 [2 0] [13 8]] (REQUEST)
D 0.007301635 _16_ MAC  COL 0 AODV 106 [0 ffffffff 30 800] [energy 89.997447 ei 0.001 es 0.000 et 0.000 er 0.001] ------- [48:255 -1:255 29 0] [0x2 2 3 [2 0] [13 8]] (REQUEST)
D 0.007301645 _52_ MAC  COL 0 AODV 106 [0 ffffffff 25 800] [energy 89.997448 ei 0.001 es 0.000 et 0.000 er 0.001] ------- [37:255 -1:255 29 0] [0x2 2 4 [3 0] [13 10]] (REQUEST)
D 0.007301659 _2_ MAC  COL 0 AODV 106 [0 ffffffff 2d 800] [energy 89.997448 ei 0.001 es 0.000 et 0.000 er 0.001] ------- [45:255 -1:255 29 0] [0x2 2 1 [0 0] [13 4]] (REQUEST)
D 0.007301665 _23_ MAC  COL 0 AODV 106 [0 ffffffff 2d 800] [energy 89.997448 ei 0.001 es 0.000 et 0.000 er 0.001] ------- [45:255 -1:255 29 0] [0x2 2 1 [0 0] [13 4]] (REQUEST)
D 0.007301669 _31_ MAC  COL 0 AODV 106 [0 ffffffff 30 800] [energy 89.997447 ei 0.001 es 0.000 et 0.000 er 0.001] ------- [48:255 -1:255 29 0] [0x2 2 3 [2 0] [13 8]] (REQUEST)
D 0.007301670 _36_ MAC  COL 0 AODV 106 [0 ffffffff 25 800] [energy 89.997448 ei 0.001 es 0.000 et 0.000 er 0.001] ------- [37:255 -1:255 29 0] [0x2 2 4 [3 0] [13 10]] (REQUEST)
D 0.007301673 _43_ MAC  COL 0 AODV 106 [0 ffffffff 2d 800] [energy 89.997448 ei 0.001 es 0.000 et 0.000 er 0.001] ------- [45:255 -1:255 29 0] [0x2 2 1 [0 0] [13 4]] (REQUEST)
D 0.007301677 _6_ MAC  COL 0 AODV 106 [0 ffffffff 2d 800] [energy 89.997447 ei 0.001 es 0.000 et 0.000 er 0.001] ------- [45:255 -1:255 29 0] [0x2 2 1 [0 0] [13 4]] (REQUEST)
D 0.007301689 _39_ MAC  COL 0 AODV 106 [0 ffffffff 2d 800] [energy 89.997448 ei 0.001 es 0.000 et 0.000 er 0.001] ------- [45:255 -1:255 29 0] [0x2 2 1 [0 0] [13 4]] (REQUEST)
D 0.007301701 _14_ MAC  COL 0 AODV 106 [0 ffffffff 30 800] [energy 89.997447 ei 0.001 es 0.000 et 0.000 er 0.001] ------- [48:255 -1:255 29 0] [0x2 2 3 [2 0] [13 8]] (REQUEST)
D 0.007301704 _17_ MAC  COL 0 AODV 106 [0 ffffffff 2d 800] [energy 89.997448 ei 0.001 es 0.000 et 0.000 er 0.001] ------- [45:255 -1:255 29 0] [0x2 2 1 [0 0] [13 4]] (REQUEST)
D 0.007301714 _11_ MAC  COL 0 AODV 106 [0 ffffffff 2e 800] [energy 89.997448 ei 0.001 es 0.000 et 0.000 er 0.001] ------- [46:255 -1:255 28 0] [0x2 3 4 [3 0] [13 10]] (REQUEST)
D 0.007301730 _15_ MAC  COL 0 AODV 106 [0 ffffffff 30 800] [energy 89.997448 ei 0.001 es 0.000 et 0.000 er 0.001] ------- [48:255 -1:255 29 0] [0x2 2 3 [2 0] [13 8]] (REQUEST)
D 0.007301731 _18_ MAC  COL 0 AODV 106 [0 ffffffff 2d 800] [energy 89.997448 ei 0.001 es 0.000 et 0.000 er 0.001] ------- [45:255 -1:255 29 0] [0x2 2 1 [0 0] [13 4]] (REQUEST)
D 0.007301740 _25_ MAC  COL 0 AODV 106 [0 ffffffff 2d 800] [energy 89.996600 ei 0.001 es 0.000 et 0.001 er 0.001] ------- [45:255 -1:255 29 0] [0x2 2 1 [0 0] [13 4]] (REQUEST)
D 0.007301744 _23_ MAC  COL 0 AODV 106 [0 ffffffff 2e 800] [energy 89.997448 ei 0.001 es 0.000 et 0.000 er 0.001] ------- [46:255 -1:255 28 0] [0x2 3 4 [3 0] [13 10]] (REQUEST)
D 0.007301764 _9_ MAC  COL 0 AODV 106 [0 ffffffff 8 800] [energy 89.997448 ei 0.001 es 0.000 et 0.000 er 0.001] ------- [8:255 -1:255 29 0] [0x2 2 1 [0 0] [13 4]] (REQUEST)
D 0.007301767 _27_ MAC  COL 0 AODV 106 [0 ffffffff 2e 800] [energy 89.997448 ei 0.001 es 0.000 et 0.000 er 0.001] ------- [46:255 -1:255 28 0] [0x2 3 4 [3 0] [13 10]] (REQUEST)
D 0.007301771 _11_ MAC  COL 0 AODV 106 [0 ffffffff 8 800] [energy 89.997448 ei 0.001 es 0.000 et 0.000 er 0.001] ------- [8:255 -1:255 29 0] [0x2 2 1 [0 0] [13 4]] (REQUEST)
D 0.007301793 _33_ MAC  COL 0 AODV 106 [0 ffffffff 2e 800] [energy 89.997448 ei 0.001 es 0.000 et 0.000 er 0.001] ------- [46:255 -1:255 28 0] [0x2 3 4 [3 0] [13 10]] (REQUEST)
D 0.007301795 _51_ MAC  COL 0 AODV 106 [0 ffffffff 8 800] [energy 89.996600 ei 0.001 es 0.000 et 0.001 er 0.001] ------- [8:255 -1:255 29 0] [0x2 2 1 [0 0] [13 4]] (REQUEST)
D 0.007301827 _42_ MAC  COL 0 AODV 106 [0 ffffffff 25 800] [energy 89.997448 ei 0.001 es 0.000 et 0.000 er 0.001] ------- [37:255 -1:255 29 0] [0x2 2 4 [3 0] [13 10]] (REQUEST)
D 0.007301835 _47_ MAC  COL 0 AODV 106 [0 ffffffff 2e 800] [energy 89.997448 ei 0.001 es 0.000 et 0.000 er 0.001] ------- [46:255 -1:255 28 0] [0x2 3 4 [3 0] [13 10]] (REQUEST)
D 0.007301842 _40_ MAC  COL 0 AODV 106 [0 ffffffff 2d 800] [energy 89.997448 ei 0.001 es 0.000 et 0.000 er 0.001] ------- [45:255 -1:255 29 0] [0x2 2 1 [0 0] [13 4]] (REQUEST)
D 0.007301855 _12_ MAC  COL 0 AODV 106 [0 ffffffff 30 800] [energy 89.997448 ei 0.001 es 0.000 et 0.000 er 0.001] ------- [48:255 -1:255 29 0] [0x2 2 3 [2 0] [13 8]] (REQUEST)
D 0.007301855 _33_ MAC  COL 0 AODV 106 [0 ffffffff 8 800] [energy 89.997448 ei 0.001 es 0.000 et 0.000 er 0.001] ------- [8:255 -1:255 29 0] [0x2 2 1 [0 0] [13 4]] (REQUEST)
D 0.007301867 _38_ MAC  COL 0 AODV 106 [0 ffffffff 30 800] [energy 89.997448 ei 0.001 es 0.000 et 0.000 er 0.001] ------- [48:255 -1:255 29 0] [0x2 2 3 [2 0] [13 8]] (REQUEST)
D 0.007301870 _23_ MAC  COL 0 AODV 106 [0 ffffffff 8 800] [energy 89.997448 ei 0.001 es 0.000 et 0.000 er 0.001] ------- [8:255 -1:255 29 0] [0x2 2 1 [0 0] [13 4]] (REQUEST)
D 0.007301872 _25_ MAC  COL 0 AODV 106 [0 ffffffff 2e 800] [energy 89.996600 ei 0.001 es 0.000 et 0.001 er 0.001] ------- [46:255 -1:255 28 0] [0x2 3 4 [3 0] [13 10]] (REQUEST)
D 0.007301881 _51_ MAC  COL 0 AODV 106 [0 ffffffff 25 800] [energy 89.996600 ei 0.001 es 0.000 et 0.001 er 0.001] ------- [37:255 -1:255 29 0] [0x2 2 4 [3 0] [13 10]] (REQUEST)