D 0.006345245 _22_ MAC  COL 0 AODV 106 [0 ffffffff e 800] [energy 89.997704 ei 0.001 es 0.000 et 0.000 er 0.001] ------- [14:255 -1:255 29 0] [0x2 2 4 [3 0] [13 10]] (REQUEST)
D 0.006345274 _12_ MAC  COL 0 AODV 106 [0 ffffffff e 800] [energy 89.997704 ei 0.001 es 0.000 et 0.000 er 0.001] ------- [14:255 -1:255 29 0] [0x2 2 4 [3 0] [13 10]] (REQUEST)
D 0.006345306 _36_ MAC  COL 0 AODV 106 [0 ffffffff e 800] [energy 89.997704 ei 0.001 es 0.000 et 0.000 er 0.001] ------- [14:255 -1:255 29 0] [0x2 2 4 [3 0] [13 10]] (REQUEST)
D 0.006345329 _42_ MAC  COL 0 AODV 106 [0 ffffffff e 800] [energy 89.997704 ei 0.001 es 0.000 et 0.000 er 0.001] ------- [14:255 -1:255 29 0] [0x2 2 4 [3 0] [13 10]] (REQUEST)
D 0.006345343 _15_ MAC  COL 0 AODV 106 [0 ffffffff e 800] [energy 89.997704 ei 0.001 es 0.000 et 0.000 er 0.001] ------- [14:255 -1:255 29 0] [0x2 2 4 [3 0] [13 10]] (REQUEST)
D 0.006345367 _41_ MAC  COL 0 AODV 106 [0 ffffffff e 800] [energy 89.997704 ei 0.001 es 0.000 et 0.000 er 0.001] ------- [14:255 -1:255 29 0] [0x2 2 4 [3 0] [13 10]] (REQUEST)
D 0.006345419 _33_ MAC  COL 0 AODV 106 [0 ffffffff e 800] [energy 89.997704 ei 0.001 es 0.000 et 0.000 er 0.001] ------- [14:255 -1:255 29 0] [0x2 2 4 [3 0] [13 10]] (REQUEST)
D 0.006345470 _7_ MAC  COL 0 AODV 106 [0 ffffffff e 800] [energy 89.997704 ei 0.001 es 0.000 et 0.000 er 0.001] ------- [14:255 -1:255 29 0] [0x2 2 4 [3 0] [13 10]] (REQUEST)
D 0.006345553 _13_ MAC  COL 0 AODV 106 [0 ffffffff e 800] [energy 89.995160 ei 0.001 es 0.000 et 0.003 er 0.001] ------- [14:255 -1:255 29 0] [0x2 2 4 [3 0] [13 10]] (REQUEST)
D 0.006345593 _5_ MAC  COL 0 AODV 106 [0 ffffffff 1f 800] [energy 89.997704 ei 0.001 es 0.000 et 0.000 er 0.001] ------- [31:255 -1:255 29 0] [0x2 2 1 [0 0] [13 4]] (REQUEST)
D 0.006345611 _39_ MAC  COL 0 AODV 106 [0 ffffffff e 800] [energy 89.997704 ei 0.001 es 0.000 et 0.000 er 0.001] ------- [14:255 -1:255 29 0] [0x2 2 4 [3 0] [13 10]] (REQUEST)
D 0.006345630 _8_ MAC  COL 0 AODV 106 [0 ffffffff e 800] [energy 89.997704 ei 0.001 es 0.000 et 0.000 er 0.001] ------- [14:255 -1:255 29 0] [0x2 2 4 [3 0] [13 10]] (REQUEST)
D 0.006345687 _27_ MAC  COL 0 AODV 106 [0 ffffffff e 800] [energy 89.997704 ei 0.001 es 0.000 et 0.000 er 0.001] ------- [14:255 -1:255 29 0] [0x2 2 4 [3 0] [13 10]] (REQUEST)
D 0.006345707 _18_ MAC  COL 0 AODV 106 [0 ffffffff 1f 800] [energy 89.997704 ei 0.001 es 0.000 et 0.000 er 0.001] ------- [31:255 -1:255 29 0] [0x2 2 1 [0 0] [13 4]] (REQUEST)
D 0.006345760 _43_ MAC  COL 0 AODV 106 [0 ffffffff e 800] [energy 89.996856 ei 0.001 es 0.000 et 0.001 er 0.001] ------- [14:255 -1:255 29 0] [0x2 2 4 [3 0] [13 10]] (REQUEST)
D 0.006345780 _40_ MAC  COL 0 AODV 106 [0 ffffffff 1f 800] [energy 89.997704 ei 0.001 es 0.000 et 0.000 er 0.001] ------- [31:255 -1:255 29 0] [0x2 2 1 [0 0] [13 4]] (REQUEST)
D 0.006345784 _48_ MAC  COL 0 AODV 106 [0 ffffffff e 800] [energy 89.997704 ei 0.001 es 0.000 et 0.000 er 0.001] ------- [14:255 -1:255 29 0] [0x2 2 4 [3 0] [13 10]] (REQUEST)
D 0.006345800 _24_ MAC  COL 0 AODV 106 [0 ffffffff 1f 800] [energy 89.997703 ei 0.001 es 0.000 et 0.000 er 0.001] ------- [31:255 -1:255 29 0] [0x2 2 1 [0 0] [13 4]] (REQUEST)
D 0.006345826 _2_ MAC  COL 0 AODV 106 [0 ffffffff 1f 800] [energy 89.997704 ei 0.001 es 0.000 et 0.000 er 0.001] ------- [31:255 -1:255 29 0] [0x2 2 1 [0 0] [13 4]] (REQUEST)
D 0.006345841 _35_ MAC  COL 0 AODV 106 [0 ffffffff 1f 800] [energy 89.997703 ei 0.001 es 0.000 et 0.000 er 0.001] ------- [31:255 -1:255 29 0] [0x2 2 1 [0 0] [13 4]] (REQUEST)
D 0.006345862 _29_ MAC  COL 0 AODV 106 [0 ffffffff e 800] [energy 89.996856 ei 0.001 es 0.000 et 0.001 er 0.001] ------- [14:255 -1:255 29 0] [0x2 2 4 [3 0] [13 10]] (REQUEST)
D 0.006345894 _11_ MAC  COL 0 AODV 106 [0 ffffffff 1f 800] [energy 89.997703 ei 0.001 es 0.000 et 0.000 er 0.001] ------- [31:255 -1:255 29 0] [0x2 2 1 [0 0] [13 4]] (REQUEST)
D 0.006345932 _9_ MAC  COL 0 AODV 106 [0 ffffffff e 800] [energy 89.997704 ei 0.001 es 0.000 et 0.000 er 0.001] ------- [14:255 -1:255 29 0] [0x2 2 4 [3 0] [13 10]] (REQUEST)
D 0.006345937 _26_ MAC  COL 0 AODV 106 [0 ffffffff 1f 800] [energy 89.997703 ei 0.001 es 0.000 et 0.000 er 0.001] ------- [31:255 -1:255 29 0] [0x2 2 1 [0 0] [13 4]] (REQUEST)
D 0.006345955 _4_ MAC  COL 0 AODV 106 [0 ffffffff 1f 800] [energy 89.997703 ei 0.001 es 0.000 et 0.000 er 0.001] ------- [31:255 -1:255 29 0] [0x2 2 1 [0 0] [13 4]] (REQUEST)
D 0.006345977 _0_ MAC  COL 0 AODV 106 [0 ffffffff 1f 800] [energy 89.997703 ei 0.001 es 0.000 et 0.000 er 0.001] ------- [31:255 -1:255 29 0] [0x2 2 1 [0 0] [13 4]] (REQUEST)
D 0.006346091 _55_ MAC  COL 0 AODV 106 [0 ffffffff e 800] [energy 89.997704 ei 0.001 es 0.000 et 0.000 er 0.001] ------- [14:255 -1:255 29 0] [0x2 2 4 [3 0] [13 10]] (REQUEST)
D 0.006346091 _54_ MAC  COL 0 AODV 106 [0 ffffffff e 800] [energy 89.997704 ei 0.001 es 0.000 et 0.000 er 0.001] ------- [14:255 -1:255 29 0] [0x2 2 4 [3 0] [13 10]] (REQUEST)
D 0.007193245 _22_ MAC  COL 0 AODV 106 [0 ffffffff 1f 800] [energy 89.997704 ei 0.001 es 0.000 et 0.000 er 0.001] ------- [31:255 -1:255 29 0] [0x2 2 1 [0 0] [13 4]] (REQUEST)
D 0.007193274 _12_ MAC  COL 0 AODV 106 [0 ffffffff 1f 800] [energy 89.997704 ei 0.001 es 0.000 et 0.000 er 0.001] ------- [31:255 -1:255 29 0] [0x2 2 1 [0 0] [13 4]] (REQUEST)
D 0.007193306 _36_ MAC  COL 0 AODV 106 [0 ffffffff 1f 800] [energy 89.997704 ei 0.001 es 0.000 et 0.000 er 0.001] ------- [31:255 -1:255 29 0] [0x2 2 1 [0 0] [13 4]] (REQUEST)
D 0.007193329 _42_ MAC  COL 0 AODV 106 [0 ffffffff 1f 800] [energy 89.997704 ei 0.001 es 0.000 et 0.000 er 0.001] ------- [31:255 -1:255 29 0] [0x2 2 1 [0 0] [13 4]] (REQUEST)
D 0.007193343 _15_ MAC  COL 0 AODV 106 [0 ffffffff 1f 800] [energy 89.997704 ei 0.001 es 0.000 et 0.000 er 0.001] ------- [31:255 -1:255 29 0] [0x2 2 1 [0 0] [13 4]] (REQUEST)
D 0.007193367 _41_ MAC  COL 0 AODV 106 [0 ffffffff 1f 800] [energy 89.997704 ei 0.001 es 0.000 et 0.000 er 0.001] ------- [31:255 -1:255 29 0] [0x2 2 1 [0 0] [13 4]] (REQUEST)
D 0.007193419 _33_ MAC  COL 0 AODV 106 [0 ffffffff 1f 800] [energy 89.997704 ei 0.001 es 0.000 et 0.000 er 0.001] ------- [31:255 -1:255 29 0] [0x2 2 1 [0 0] [13 4]] (REQUEST)
D 0.007193470 _7_ MAC  COL 0 AODV 106 [0 ffffffff 1f 800] [energy 89.997704 ei 0.001 es 0.000 et 0.000 er 0.001] ------- [31:255 -1:255 29 0] [0x2 2 1 [0 0] [13 4]] (REQUEST)
D 0.007193553 _13_ MAC  COL 0 AODV 106 [0 ffffffff 1f 800] [energy 89.995160 ei 0.001 es 0.000 et 0.003 er 0.001] ------- [31:255 -1:255 29 0] [0x2 2 1 [0 0] [13 4]] (REQUEST)
D 0.007193593 _5_ MAC  COL 0 AODV 106 [0 ffffffff e 800] [energy 89.997704 ei 0.001 es 0.000 et 0.000 er 0.001] ------- [14:255 -1:255 29 0] [0x2 2 4 [3 0] [13 10]] (REQUEST)
D 0.007193611 _39_ MAC  COL 0 AODV 106 [0 ffffffff 1f 800] [energy 89.997704 ei 0.001 es 0.000 et 0.000 er 0.001] ------- [31:255 -1:255 29 0] [0x2 2 1 [0 0] [13 4]] (REQUEST)
D 0.007193630 _8_ MAC  COL 0 AODV 106 [0 ffffffff 1f 800] [energy 89.997704 ei 0.001 es 0.000 et 0.000 er 0.001] ------- [31:255 -1:255 29 0] [0x2 2 1 [0 0] [13 4]] (REQUEST)
D 0.007193687 _27_ MAC  COL 0 AODV 106 [0 ffffffff 1f 800] [energy 89.997704 ei 0.001 es 0.000 et 0.000 er 0.001] ------- [31:255 -1:255 29 0] [0x2 2 1 [0 0] [13 4]] (REQUEST)
D 0.007193710 _47_ MAC  COL 0 AODV 106 [0 ffffffff 1f 800] [energy 89.997704 ei 0.001 es 0.000 et 0.000 er 0.001] ------- [31:255 -1:255 29 0] [0x2 2 1 [0 0] [13 4]] (REQUEST)
D 0.007193760 _43_ MAC  COL 0 AODV 106 [0 ffffffff 1f 800] [energy 89.996856 ei 0.001 es 0.000 et 0.001 er 0.001] ------- [31:255 -1:255 29 0] [0x2 2 1 [0 0] [13 4]] (REQUEST)
D 0.007193784 _48_ MAC  COL 0 AODV 106 [0 ffffffff 1f 800] [energy 89.997704 ei 0.001 es 0.000 et 0.000 er 0.001] ------- [31:255 -1:255 29 0] [0x2 2 1 [0 0] [13 4]] (REQUEST)
D 0.007193786 _3_ MAC  COL 0 AODV 106 [0 ffffffff 1f 800] [energy 89.996855 ei 0.001 es 0.000 et 0.001 er 0.001] ------- [31:255 -1:255 29 0] [0x2 2 1 [0 0] [13 4]] (REQUEST)
D 0.007193862 _29_ MAC  COL 0 AODV 106 [0 ffffffff 1f 800] [energy 89.996856 ei 0.001 es 0.000 et 0.001 er 0.001] ------- [31:255 -1:255 29 0] [0x2 2 1 [0 0] [13 4]] (REQUEST)
D 0.009525265 _21_ MAC  COL 0 AODV 106 [0 ffffffff 14 800] [energy 89.995775 ei 0.002 es 0.000 et 0.001 er 0.001] ------- [20:255 -1:255 29 0] [0x2 2 3 [2 0] [13 8]] (REQUEST)
D 0.009525318 _39_ MAC  COL 0 AODV 106 [0 ffffffff 18 800] [energy 89.996623 ei 0.002 es 0.000 et 0.000 er 0.001] ------- [24:255 -1:255 29 0] [0x2 2 1 [0 0] [13 4]] (REQUEST)
D 0.009525332 _52_ MAC  COL 0 AODV 106 [0 ffffffff 14 800] [energy 89.996623 ei 0.002 es 0.000 et 0.000 er 0.001] ------- [20:255 -1:255 29 0] [0x2 2 3 [2 0] [13 8]] (REQUEST)
D 0.009525338 _27_ MAC  COL 0 AODV 106 [0 ffffffff 18 800] [energy 89.996623 ei 0.002 es 0.000 et 0.000 er 0.001] ------- [24:255 -1:255 29 0] [0x2 2 1 [0 0] [13 4]] (REQUEST)
D 0.009525352 _5_ MAC  COL 0 AODV 106 [0 ffffffff d 800] [energy 89.996623 ei 0.002 es 0.000 et 0.000 er 0.001] ------- [13:255 -1:255 30 0] [0x2 1 2 [1 0] [13 6]] (REQUEST)
D 0.009525359 _4_ MAC  COL 0 AODV 106 [0 ffffffff 18 800] [energy 89.996623 ei 0.002 es 0.000 et 0.000 er 0.001] ------- [24:255 -1:255 29 0] [0x2 2 1 [0 0] [13 4]] (REQUEST)
D 0.009525423 _48_ MAC  COL 0 AODV 106 [0 ffffffff 18 800] [energy 89.996623 ei 0.002 es 0.000 et 0.000 er 0.001] ------- [24:255 -1:255 29 0] [0x2 2 1 [0 0] [13 4]] (REQUEST)
D 0.009525500 _29_ MAC  COL 0 AODV 106 [0 ffffffff 18 800] [energy 89.995775 ei 0.002 es 0.000 et 0.001 er 0.001] ------- [24:255 -1:255 29 0] [0x2 2 1 [0 0] [13 4]] (REQUEST)
D 0.009525565 _2_ MAC  COL 0 AODV 106 [0 ffffffff 18 800] [energy 89.996623 ei 0.002 es 0.000 et 0.000 er 0.001] ------- [24:255 -1:255 29 0] [0x2 2 1 [0 0] [13 4]] (REQUEST)
D 0.009525565 _2_ MAC  COL 0 AODV 106 [0 ffffffff d 800] [energy 89.996623 ei 0.002 es 0.000 et 0.000 er 0.001] ------- [13:255 -1:255 30 0] [0x2 1 2 [1 0] [13 6]] (REQUEST)
D 0.009525623 _23_ MAC  COL 0 AODV 106 [0 ffffffff d 800] [energy 89.996623 ei 0.002 es 0.000 et 0.000 er 0.001] ------- [13:255 -1:255 30 0] [0x2 1 2 [1 0] [13 6]] (REQUEST)
D 0.009525644 _48_ MAC  COL 0 AODV 106 [0 ffffffff d 800] [energy 89.996623 ei 0.002 es 0.000 et 0.000 er 0.001] ------- [13:255 -1:255 30 0] [0x2 1 2 [1 0] [13 6]] (REQUEST)
D 0.009525665 _5_ MAC  COL 0 AODV 106 [0 ffffffff 18 800] [energy 89.996623 ei 0.002 es 0.000 et 0.000 er 0.001] ------- [24:255 -1:255 29 0] [0x2 2 1 [0 0] [13 4]] (REQUEST)
D 0.009525671 _11_ MAC  COL 0 AODV 106 [0 ffffffff 18 800] [energy 89.995775 ei 0.002 es 0.000 et 0.001 er 0.001] ------- [24:255 -1:255 29 0] [0x2 2 1 [0 0] [13 4]] (REQUEST)
D 0.009525684 _11_ MAC  COL 0 AODV 106 [0 ffffffff 14 800] [energy 89.995775 ei 0.002 es 0.000 et 0.001 er 0.001] ------- [20:255 -1:255 29 0] [0x2 2 3 [2 0] [13 8]] (REQUEST)
D 0.009525719 _29_ MAC  COL 0 AODV 106 [0 ffffffff d 800] [energy 89.995775 ei 0.002 es 0.000 et 0.001 er 0.001] ------- [13:255 -1:255 30 0] [0x2 1 2 [1 0] [13 6]] (REQUEST)
D 0.009525722 _17_ MAC  COL 0 AODV 106 [0 ffffffff d 800] [energy 89.996622 ei 0.002 es 0.000 et 0.000 er 0.001] ------- [13:255 -1:255 30 0] [0x2 1 2 [1 0] [13 6]] (REQUEST)
D 0.009525731 _25_ MAC  COL 0 AODV 106 [0 ffffffff d 800] [energy 89.996623 ei 0.002 es 0.000 et 0.000 er 0.001] ------- [13:255 -1:255 30 0] [0x2 1 2 [1 0] [13 6]] (REQUEST)
D 0.009525791 _51_ MAC  COL 0 AODV 106 [0 ffffffff 18 800] [energy 89.996622 ei 0.002 es 0.000 et 0.000 er 0.001] ------- [24:255 -1:255 29 0] [0x2 2 1 [0 0] [13 4]] (REQUEST)
D 0.009525803 _9_ MAC  COL 0 AODV 106 [0 ffffffff d 800] [energy 89.996623 ei 0.002 es 0.000 et 0.000 er 0.001] ------- [13:255 -1:255 30 0] [0x2 1 2 [1 0] [13 6]] (REQUEST)
D 0.009525870 _19_ MAC  COL 0 AODV 106 [0 ffffffff d 800] [energy 89.996623 ei 0.002 es 0.000 et 0.000 er 0.001] ------- [13:255 -1:255 30 0] [0x2 1 2 [1 0] [13 6]] (REQUEST)
D 0.009525895 _23_ MAC  COL 0 AODV 106 [0 ffffffff 18 800] [energy 89.996623 ei 0.002 es 0.000 et 0.000 er 0.001] ------- [24:255 -1:255 29 0] [0x2 2 1 [0 0] [13 4]] (REQUEST)
D 0.009525958 _7_ MAC  COL 0 AODV 106 [0 ffffffff d 800] [energy 89.996623 ei 0.002 es 0.000 et 0.000 er 0.001] ------- [13:255 -1:255 30 0] [0x2 1 2 [1 0] [13 6]] (REQUEST)
D 0.009525979 _42_ MAC  COL 0 AODV 106 [0 ffffffff d 800] [energy 89.996622 ei 0.002 es 0.000 et 0.000 er 0.001] ------- [13:255 -1:255 30 0] [0x2 1 2 [1 0] [13 6]] (REQUEST)
D 0.009525980 _33_ MAC  COL 0 AODV 106 [0 ffffffff d 800] [energy 89.996623 ei 0.002 es 0.000 et 0.000 er 0.001] ------- [13:255 -1:255 30 0] [0x2 1 2 [1 0] [13 6]] (REQUEST)
D 0.009525981 _17_ MAC  COL 0 AODV 106 [0 ffffffff 18 800] [energy 89.996622 ei 0.002 es 0.000 et 0.000 er 0.001] ------- [24:255 -1:255 29 0] [0x2 2 1 [0 0] [13 4]] (REQUEST)
D 0.009526001 _25_ MAC  COL 0 AODV 106 [0 ffffffff 18 800] [energy 89.996622 ei 0.002 es 0.000 et 0.000 er 0.001] ------- [24:255 -1:255 29 0] [0x2 2 1 [0 0] [13 4]] (REQUEST)
D 0.009526066 _55_ MAC  COL 0 AODV 106 [0 ffffffff d 800] [energy 89.996623 ei 0.002 es 0.000 et 0.000 er 0.001] ------- [13:255 -1:255 30 0] [0x2 1 2 [1 0] [13 6]] (REQUEST)
D 0.009526066 _54_ MAC  COL 0 AODV 106 [0 ffffffff d 800] [energy 89.996623 ei 0.002 es 0.000 et 0.000 er 0.001] ------- [13:255 -1:255 30 0] [0x2 1 2 [1 0] [13 6]] (REQUEST)
D 0.009526163 _51_ MAC  COL 0 AODV 106 [0 ffffffff 14 800] [energy 89.996622 ei 0.002 es 0.000 et 0.000 er 0.001] ------- [20:255 -1:255 29 0] [0x2 2 3 [2 0] [13 8]] (REQUEST)
D 0.010373265 _21_ MAC  COL 0 AODV 106 [0 ffffffff 18 800] [energy 89.995775 ei 0.002 es 0.000 et 0.001 er 0.001] ------- [24:255 -1:255 29 0] [0x2 2 1 [0 0] [13 4]] (REQUEST)
D 0.010373318 _39_ MAC  COL 0 AODV 106 [0 ffffffff d 800] [energy 89.996623 ei 0.002 es 0.000 et 0.000 er 0.001] ------- [13:255 -1:255 30 0] [0x2 1 2 [1 0] [13 6]] (REQUEST)
D 0.010373332 _52_ MAC  COL 0 AODV 106 [0 ffffffff 18 800] [energy 89.996623 ei 0.002 es 0.000 et 0.000 er 0.001] ------- [24:255 -1:255 29 0] [0x2 2 1 [0 0] [13 4]] (REQUEST)
D 0.010373338 _27_ MAC  COL 0 AODV 106 [0 ffffffff d 800] [energy 89.996623 ei 0.002 es 0.000 et 0.000 er 0.001] ------- [13:255 -1:255 30 0] [0x2 1 2 [1 0] [13 6]] (REQUEST)
D 0.010373359 _4_ MAC  COL 0 AODV 106 [0 ffffffff 14 800] [energy 89.996623 ei 0.002 es 0.000 et 0.000 er 0.001] ------- [20:255 -1:255 29 0] [0x2 2 3 [2 0] [13 8]] (REQUEST)
D 0.010373565 _2_ MAC  COL 0 AODV 106 [0 ffffffff 14 800] [energy 89.996623 ei 0.002 es 0.000 et 0.000 er 0.001] ------- [20:255 -1:255 29 0] [0x2 2 3 [2 0] [13 8]] (REQUEST)
D 0.010373644 _48_ MAC  COL 0 AODV 106 [0 ffffffff 14 800] [energy 89.996623 ei 0.002 es 0.000 et 0.000 er 0.001] ------- [20:255 -1:255 29 0] [0x2 2 3 [2 0] [13 8]] (REQUEST)
D 0.010373665 _5_ MAC  COL 0 AODV 106 [0 ffffffff 14 800] [energy 89.996623 ei 0.002 es 0.000 et 0.000 er 0.001] ------- [20:255 -1:255 29 0] [0x2 2 3 [2 0] [13 8]] (REQUEST)
D 0.010373684 _11_ MAC  COL 0 AODV 106 [0 ffffffff d 800] [energy 89.995775 ei 0.002 es 0.000 et 0.001 er 0.001] ------- [13:255 -1:255 30 0] [0x2 1 2 [1 0] [13 6]] (REQUEST)
D 0.010373719 _29_ MAC  COL 0 AODV 106 [0 ffffffff 14 800] [energy 89.995775 ei 0.002 es 0.000 et 0.001 er 0.001] ------- [20:255 -1:255 29 0] [0x2 2 3 [2 0] [13 8]] (REQUEST)
D 0.011726318 _13_ MAC  COL 0 AODV 106 [0 ffffffff 29 800] [energy 89.992430 ei 0.002 es 0.000 et 0.004 er 0.001] ------- [41:255 -1:255 29 0] [0x2 2 1 [0 0] [13 4]] (REQUEST)
D 0.011726459 _22_ MAC  COL 0 AODV 106 [0 ffffffff f 800] [energy 89.995822 ei 0.002 es 0.000 et 0.000 er 0.002] ------- [15:255 -1:255 29 0] [0x2 2 3 [2 0] [13 8]] (REQUEST)
D 0.011726490 _49_ MAC  COL 0 AODV 106 [0 ffffffff f 800] [energy 89.995821 ei 0.002 es 0.000 et 0.000 er 0.002] ------- [15:255 -1:255 29 0] [0x2 2 3 [2 0] [13 8]] (REQUEST)
D 0.011726514 _49_ MAC  COL 0 AODV 106 [0 ffffffff 29 800] [energy 89.995821 ei 0.002 es 0.000 et 0.000 er 0.002] ------- [41:255 -1:255 29 0] [0x2 2 1 [0 0] [13 4]] (REQUEST)
D 0.011726517 _31_ MAC  COL 0 AODV 106 [0 ffffffff f 800] [energy 89.994973 ei 0.002 es 0.000 et 0.001 er 0.002] ------- [15:255 -1:255 29 0] [0x2 2 3 [2 0] [13 8]] (REQUEST)
D 0.011726518 _5_ MAC  COL 0 AODV 106 [0 ffffffff f 800] [energy 89.995821 ei 0.002 es 0.000 et 0.000 er 0.002] ------- [15:255 -1:255 29 0] [0x2 2 3 [2 0] [13 8]] (REQUEST)
D 0.011726549 _5_ MAC  COL 0 AODV 106 [0 ffffffff 29 800] [energy 89.995821 ei 0.002 es 0.000 et 0.000 er 0.002] ------- [41:255 -1:255 29 0] [0x2 2 1 [0 0] [13 4]] (REQUEST)
D 0.011726551 _31_ MAC  COL 0 AODV 106 [0 ffffffff 1 800] [energy 89.994973 ei 0.002 es 0.000 et 0.001 er 0.002] ------- [1:255 -1:255 29 0] [0x2 2 3 [2 0] [13 8]] (REQUEST)
D 0.011726596 _39_ MAC  COL 0 AODV 106 [0 ffffffff 29 800] [energy 89.995821 ei 0.002 es 0.000 et 0.000 er 0.002] ------- [41:255 -1:255 29 0] [0x2 2 1 [0 0] [13 4]] (REQUEST)
D 0.011726599 _7_ MAC  COL 0 AODV 106 [0 ffffffff f 800] [energy 89.995822 ei 0.002 es 0.000 et 0.000 er 0.002] ------- [15:255 -1:255 29 0] [0x2 2 3 [2 0] [13 8]] (REQUEST)
D 0.011726607 _27_ MAC  COL 0 AODV 106 [0 ffffffff 29 800] [energy 89.995821 ei 0.002 es 0.000 et 0.000 er 0.002] ------- [41:255 -1:255 29 0] [0x2 2 1 [0 0] [13 4]] (REQUEST)
D 0.011726623 _10_ MAC  COL 0 AODV 106 [0 ffffffff f 800] [energy 89.995822 ei 0.002 es 0.000 et 0.000 er 0.002] ------- [15:255 -1:255 29 0] [0x2 2 3 [2 0] [13 8]] (REQUEST)
D 0.011726648 _14_ MAC  COL 0 AODV 106 [0 ffffffff f 800] [energy 89.994974 ei 0.002 es 0.000 et 0.001 er 0.002] ------- [15:255 -1:255 29 0] [0x2 2 3 [2 0] [13 8]] (REQUEST)
D 0.011726650 _43_ MAC  COL 0 AODV 106 [0 ffffffff f 800] [energy 89.994974 ei 0.002 es 0.000 et 0.001 er 0.002] ------- [15:255 -1:255 29 0] [0x2 2 3 [2 0] [13 8]] (REQUEST)
D 0.011726661 _50_ MAC  COL 0 AODV 106 [0 ffffffff f 800] [energy 89.995822 ei 0.002 es 0.000 et 0.000 er 0.002] ------- [15:255 -1:255 29 0] [0x2 2 3 [2 0] [13 8]] (REQUEST)
D 0.011726667 _22_ MAC  COL 0 AODV 106 [0 ffffffff 29 800] [energy 89.995822 ei 0.002 es 0.000 et 0.000 er 0.002] ------- [41:255 -1:255 29 0] [0x2 2 1 [0 0] [13 4]] (REQUEST)
D 0.011726668 _13_ MAC  COL 0 AODV 106 [0 ffffffff f 800] [energy 89.992430 ei 0.002 es 0.000 et 0.004 er 0.001] ------- [15:255 -1:255 29 0] [0x2 2 3 [2 0] [13 8]] (REQUEST)
D 0.011726675 _48_ MAC  COL 0 AODV 106 [0 ffffffff f 800] [energy 89.995821 ei 0.002 es 0.000 et 0.000 er 0.002] ------- [15:255 -1:255 29 0] [0x2 2 3 [2 0] [13 8]] (REQUEST)
D 0.011726686 _19_ MAC  COL 0 AODV 106 [0 ffffffff f 800] [energy 89.995822 ei 0.002 es 0.000 et 0.000 er 0.002] ------- [15:255 -1:255 29 0] [0x2 2 3 [2 0] [13 8]] (REQUEST)
D 0.011726687 _33_ MAC  COL 0 AODV 106 [0 ffffffff f 800] [energy 89.995822 ei 0.002 es 0.000 et 0.000 er 0.002] ------- [15:255 -1:255 29 0] [0x2 2 3 [2 0] [13 8]] (REQUEST)
D 0.011726706 _3_ MAC  COL 0 AODV 106 [0 ffffffff 29 800] [energy 89.994973 ei 0.002 es 0.000 et 0.001 er 0.002] ------- [41:255 -1:255 29 0] [0x2 2 1 [0 0] [13 4]] (REQUEST)
D 0.011726711 _2_ MAC  COL 0 AODV 106 [0 ffffffff f 800] [energy 89.995821 ei 0.002 es 0.000 et 0.000 er 0.002] ------- [15:255 -1:255 29 0] [0x2 2 3 [2 0] [13 8]] (REQUEST)
D 0.011726712 _2_ MAC  COL 0 AODV 106 [0 ffffffff 1 800] [energy 89.995821 ei 0.002 es 0.000 et 0.000 er 0.002] ------- [1:255 -1:255 29 0] [0x2 2 3 [2 0] [13 8]] (REQUEST)
D 0.011726738 _29_ MAC  COL 0 AODV 106 [0 ffffffff f 800] [energy 89.994973 ei 0.002 es 0.000 et 0.001 er 0.002] ------- [15:255 -1:255 29 0] [0x2 2 3 [2 0] [13 8]] (REQUEST)
D 0.011726766 _42_ MAC  COL 0 AODV 106 [0 ffffffff f 800] [energy 89.995821 ei 0.002 es 0.000 et 0.000 er 0.002] ------- [15:255 -1:255 29 0] [0x2 2 3 [2 0] [13 8]] (REQUEST)
D 0.011726788 _7_ MAC  COL 0 AODV 106 [0 ffffffff 29 800] [energy 89.995822 ei 0.002 es 0.000 et 0.000 er 0.002] ------- [41:255 -1:255 29 0] [0x2 2 1 [0 0] [13 4]] (REQUEST)
D 0.011726797 _9_ MAC  COL 0 AODV 106 [0 ffffffff f 800] [energy 89.995821 ei 0.002 es 0.000 et 0.000 er 0.002] ------- [15:255 -1:255 29 0] [0x2 2 3 [2 0] [13 8]] (REQUEST)
D 0.011726801 _42_ MAC  COL 0 AODV 106 [0 ffffffff 29 800] [energy 89.995821 ei 0.002 es 0.000 et 0.000 er 0.002] ------- [41:255 -1:255 29 0] [0x2 2 1 [0 0] [13 4]] (REQUEST)
D 0.011726807 _11_ MAC  COL 0 AODV 106 [0 ffffffff 1 800] [energy 89.994973 ei 0.002 es 0.000 et 0.001 er 0.002] ------- [1:255 -1:255 29 0] [0x2 2 3 [2 0] [13 8]] (REQUEST)
D 0.011726808 _4_ MAC  COL 0 AODV 106 [0 ffffffff f 800] [energy 89.995821 ei 0.002 es 0.000 et 0.000 er 0.002] ------- [15:255 -1:255 29 0] [0x2 2 3 [2 0] [13 8]] (REQUEST)
D 0.011726812 _24_ MAC  COL 0 AODV 106 [0 ffffffff 29 800] [energy 89.994973 ei 0.002 es 0.000 et 0.001 er 0.002] ------- [41:255 -1:255 29 0] [0x2 2 1 [0 0] [13 4]] (REQUEST)
D 0.011726861 _39_ MAC  COL 0 AODV 106 [0 ffffffff f 800] [energy 89.995821 ei 0.002 es 0.000 et 0.000 er 0.002] ------- [15:255 -1:255 29 0] [0x2 2 3 [2 0] [13 8]] (REQUEST)
D 0.011726876 _3_ MAC  COL 0 AODV 106 [0 ffffffff f 800] [energy 89.994973 ei 0.002 es 0.000 et 0.001 er 0.002] ------- [15:255 -1:255 29 0] [0x2 2 3 [2 0] [13 8]] (REQUEST)
D 0.011726879 _33_ MAC  COL 0 AODV 106 [0 ffffffff 29 800] [energy 89.995822 ei 0.002 es 0.000 et 0.000 er 0.002] ------- [41:255 -1:255 29 0] [0x2 2 1 [0 0] [13 4]] (REQUEST)
D 0.011726922 _4_ MAC  COL 0 AODV 106 [0 ffffffff 29 800] [energy 89.995821 ei 0.002 es 0.000 et 0.000 er 0.002] ------- [41:255 -1:255 29 0] [0x2 2 1 [0 0] [13 4]] (REQUEST)
D 0.011726937 _0_ MAC  COL 0 AODV 106 [0 ffffffff 1 800] [energy 89.995821 ei 0.002 es 0.000 et 0.000 er 0.002] ------- [1:255 -1:255 29 0] [0x2 2 3 [2 0] [13 8]] (REQUEST)
D 0.011726951 _14_ MAC  COL 0 AODV 106 [0 ffffffff 29 800] [energy 89.994974 ei 0.002 es 0.000 et 0.001 er 0.002] ------- [41:255 -1:255 29 0] [0x2 2 1 [0 0] [13 4]] (REQUEST)
D 0.011726952 _27_ MAC  COL 0 AODV 106 [0 ffffffff f 800] [energy 89.995821 ei 0.002 es 0.000 et 0.000 er 0.002] ------- [15:255 -1:255 29 0] [0x2 2 3 [2 0] [13 8]] (REQUEST)
D 0.011726985 _18_ MAC  COL 0 AODV 106 [0 ffffffff f 800] [energy 89.995821 ei 0.002 es 0.000 et 0.000 er 0.002] ------- [15:255 -1:255 29 0] [0x2 2 3 [2 0] [13 8]] (REQUEST)
D 0.011726997 _55_ MAC  COL 0 AODV 106 [0 ffffffff f 800] [energy 89.995821 ei 0.002 es 0.000 et 0.000 er 0.002] ------- [15:255 -1:255 29 0] [0x2 2 3 [2 0] [13 8]] (REQUEST)
D 0.011726997 _54_ MAC  COL 0 AODV 106 [0 ffffffff f 800] [energy 89.995821 ei 0.002 es 0.000 et 0.000 er 0.002] ------- [15:255 -1:255 29 0] [0x2 2 3 [2 0] [13 8]] (REQUEST)
D 0.011727010 _24_ MAC  COL 0 AODV 106 [0 ffffffff f 800] [energy 89.994973 ei 0.002 es 0.000 et 0.001 er 0.002] ------- [15:255 -1:255 29 0] [0x2 2 3 [2 0] [13 8]] (REQUEST)
D 0.011727018 _10_ MAC  COL 0 AODV 106 [0 ffffffff 29 800] [energy 89.995822 ei 0.002 es 0.000 et 0.000 er 0.002] ------- [41:255 -1:255 29 0] [0x2 2 1 [0 0] [13 4]] (REQUEST)
D 0.011727036 _21_ MAC  COL 0 AODV 106 [0 ffffffff 29 800] [energy 89.994973 ei 0.002 es 0.000 et 0.001 er 0.002] ------- [41:255 -1:255 29 0] [0x2 2 1 [0 0] [13 4]] (REQUEST)
D 0.011727042 _26_ MAC  COL 0 AODV 106 [0 ffffffff 1 800] [energy 89.995821 ei 0.002 es 0.000 et 0.000 er 0.002] ------- [1:255 -1:255 29 0] [0x2 2 3 [2 0] [13 8]] (REQUEST)
D 0.011727054 _46_ MAC  COL 0 AODV 106 [0 ffffffff 29 800] [energy 89.995821 ei 0.002 es 0.000 et 0.000 er 0.002] ------- [41:255 -1:255 29 0] [0x2 2 1 [0 0] [13 4]] (REQUEST)
D 0.011727058 _48_ MAC  COL 0 AODV 106 [0 ffffffff 29 800] [energy 89.995821 ei 0.002 es 0.000 et 0.000 er 0.002] ------- [41:255 -1:255 29 0] [0x2 2 1 [0 0] [13 4]] (REQUEST)
D 0.011727060 _50_ MAC  COL 0 AODV 106 [0 ffffffff 29 800] [energy 89.995822 ei 0.002 es 0.000 et 0.000 er 0.002] ------- [41:255 -1:255 29 0] [0x2 2 1 [0 0] [13 4]] (REQUEST)
D 0.011727070 _20_ MAC  COL 0 AODV 106 [0 ffffffff 29 800] [energy 89.994973 ei 0.002 es 0.000 et 0.001 er 0.002] ------- [41:255 -1:255 29 0] [0x2 2 1 [0 0] [13 4]] (REQUEST)
D 0.011727093 _18_ MAC  COL 0 AODV 106 [0 ffffffff 1 800] [energy 89.995821 ei 0.002 es 0.000 et 0.000 er 0.002] ------- [1:255 -1:255 29 0] [0x2 2 3 [2 0] [13 8]] (REQUEST)
D 0.011727112 _43_ MAC  COL 0 AODV 106 [0 ffffffff 29 800] [energy 89.994973 ei 0.002 es 0.000 et 0.001 er 0.002] ------- [41:255 -1:255 29 0] [0x2 2 1 [0 0] [13 4]] (REQUEST)
D 0.011727130 _19_ MAC  COL 0 AODV 106 [0 ffffffff 29 800] [energy 89.995822 ei 0.002 es 0.000 et 0.000 er 0.002] ------- [41:255 -1:255 29 0] [0x2 2 1 [0 0] [13 4]] (REQUEST)
D 0.011727131 _8_ MAC  COL 0 AODV 106 [0 ffffffff f 800] [energy 89.995821 ei 0.002 es 0.000 et 0.000 er 0.002] ------- [15:255 -1:255 29 0] [0x2 2 3 [2 0] [13 8]] (REQUEST)
D 0.011727137 _8_ MAC  COL 0 AODV 106 [0 ffffffff 1 800] [energy 89.995821 ei 0.002 es 0.000 et 0.000 er 0.002] ------- [1:255 -1:255 29 0] [0x2 2 3 [2 0] [13 8]] (REQUEST)
D 0.011727145 _29_ MAC  COL 0 AODV 106 [0 ffffffff 29 800] [energy 89.994973 ei 0.002 es 0.000 et 0.001 er 0.002] ------- [41:255 -1:255 29 0] [0x2 2 1 [0 0] [13 4]] (REQUEST)
D 0.011727156 _6_ MAC  COL 0 AODV 106 [0 ffffffff 1 800] [energy 89.995820 ei 0.002 es 0.000 et 0.000 er 0.002] ------- [1:255 -1:255 29 0] [0x2 2 3 [2 0] [13 8]] (REQUEST)
D 0.011727174 _35_ MAC  COL 0 AODV 106 [0 ffffffff 1 800] [energy 89.995821 ei 0.002 es 0.000 et 0.000 er 0.002] ------- [1:255 -1:255 29 0] [0x2 2 3 [2 0] [13 8]] (REQUEST)
D 0.011727179 _40_ MAC  COL 0 AODV 106 [0 ffffffff 1 800] [energy 89.995821 ei 0.002 es 0.000 et 0.000 er 0.002] ------- [1:255 -1:255 29 0] [0x2 2 3 [2 0] [13 8]] (REQUEST)
D 0.011727199 _47_ MAC  COL 0 AODV 106 [0 ffffffff 1 800] [energy 89.995821 ei 0.002 es 0.000 et 0.000 er 0.002] ------- [1:255 -1:255 29 0] [0x2 2 3 [2 0] [13 8]] (REQUEST)
D 0.011727208 _32_ MAC  COL 0 AODV 106 [0 ffffffff 1 800] [energy 89.995820 ei 0.002 es 0.000 et 0.000 er 0.002] ------- [1:255 -1:255 29 0] [0x2 2 3 [2 0] [13 8]] (REQUEST)
D 0.011727221 _28_ MAC  COL 0 AODV 106 [0 ffffffff 1 800] [energy 89.995820 ei 0.002 es 0.000 et 0.000 er 0.002] ------- [1:255 -1:255 29 0] [0x2 2 3 [2 0] [13 8]] (REQUEST)
D 0.011727235 _34_ MAC  COL 0 AODV 106 [0 ffffffff 1 800] [energy 89.995820 ei 0.002 es 0.000 et 0.000 er 0.002] ------- [1:255 -1:255 29 0] [0x2 2 3 [2 0] [13 8]] (REQUEST)
D 0.011727262 _9_ MAC  COL 0 AODV 106 [0 ffffffff 29 800] [energy 89.995821 ei 0.002 es 0.000 et 0.000 er 0.002] ------- [41:255 -1:255 29 0] [0x2 2 1 [0 0] [13 4]] (REQUEST)
D 0.011727455 _55_ MAC  COL 0 AODV 106 [0 ffffffff 29 800] [energy 89.995821 ei 0.002 es 0.000 et 0.000 er 0.002] ------- [41:255 -1:255 29 0] [0x2 2 1 [0 0] [13 4]] (REQUEST)
D 0.011727455 _54_ MAC  COL 0 AODV 106 [0 ffffffff 29 800] [energy 89.995821 ei 0.002 es 0.000 et 0.000 er 0.002] ------- [41:255 -1:255 29 0] [0x2 2 1 [0 0] [13 4]] (REQUEST)
D 0.012574514 _49_ MAC  COL 0 AODV 106 [0 ffffffff 1 800] [energy 89.995821 ei 0.002 es 0.000 et 0.000 er 0.002] ------- [1:255 -1:255 29 0] [0x2 2 3 [2 0] [13 8]] (REQUEST)
D 0.012574549 _5_ MAC  COL 0 AODV 106 [0 ffffffff 1 800] [energy 89.995821 ei 0.002 es 0.000 et 0.000 er 0.002] ------- [1:255 -1:255 29 0] [0x2 2 3 [2 0] [13 8]] (REQUEST)
D 0.012574551 _31_ MAC  COL 0 AODV 106 [0 ffffffff 29 800] [energy 89.994973 ei 0.002 es 0.000 et 0.001 er 0.002] ------- [41:255 -1:255 29 0] [0x2 2 1 [0 0] [13 4]] (REQUEST)
D 0.012574667 _22_ MAC  COL 0 AODV 106 [0 ffffffff 1 800] [energy 89.995822 ei 0.002 es 0.000 et 0.000 er 0.002] ------- [1:255 -1:255 29 0] [0x2 2 3 [2 0] [13 8]] (REQUEST)
D 0.012574668 _13_ MAC  COL 0 AODV 106 [0 ffffffff 1 800] [energy 89.992430 ei 0.002 es 0.000 et 0.004 er 0.001] ------- [1:255 -1:255 29 0] [0x2 2 3 [2 0] [13 8]] (REQUEST)
D 0.012574712 _2_ MAC  COL 0 AODV 106 [0 ffffffff 29 800] [energy 89.995821 ei 0.002 es 0.000 et 0.000 er 0.002] ------- [41:255 -1:255 29 0] [0x2 2 1 [0 0] [13 4]] (REQUEST)
D 0.012574788 _7_ MAC  COL 0 AODV 106 [0 ffffffff 1 800] [energy 89.995822 ei 0.002 es 0.000 et 0.000 er 0.002] ------- [1:255 -1:255 29 0] [0x2 2 3 [2 0] [13 8]] (REQUEST)
D 0.012574801 _42_ MAC  COL 0 AODV 106 [0 ffffffff 1 800] [energy 89.995821 ei 0.002 es 0.000 et 0.000 er 0.002] ------- [1:255 -1:255 29 0] [0x2 2 3 [2 0] [13 8]] (REQUEST)
D 0.012574807 _11_ MAC  COL 0 AODV 106 [0 ffffffff 29 800] [energy 89.994973 ei 0.002 es 0.000 et 0.001 er 0.002] ------- [41:255 -1:255 29 0] [0x2 2 1 [0 0] [13 4]] (REQUEST)
D 0.012574861 _39_ MAC  COL 0 AODV 106 [0 ffffffff 1 800] [energy 89.995821 ei 0.002 es 0.000 et 0.000 er 0.002] ------- [1:255 -1:255 29 0] [0x2 2 3 [2 0] [13 8]] (REQUEST)
D 0.012574876 _3_ MAC  COL 0 AODV 106 [0 ffffffff 1 800] [energy 89.994973 ei 0.002 es 0.000 et 0.001 er 0.002] ------- [1:255 -1:255 29 0] [0x2 2 3 [2 0] [13 8]] (REQUEST)
D 0.012574879 _33_ MAC  COL 0 AODV 106 [0 ffffffff 1 800] [energy 89.995822 ei 0.002 es 0.000 et 0.000 er 0.002] ------- [1:255 -1:255 29 0] [0x2 2 3 [2 0] [13 8]] (REQUEST)
D 0.012574922 _4_ MAC  COL 0 AODV 106 [0 ffffffff 1 800] [energy 89.995821 ei 0.002 es 0.000 et 0.000 er 0.002] ------- [1:255 -1:255 29 0] [0x2 2 3 [2 0] [13 8]] (REQUEST)
D 0.012574951 _14_ MAC  COL 0 AODV 106 [0 ffffffff 1 800] [energy 89.994974 ei 0.002 es 0.000 et 0.001 er 0.002] ------- [1:255 -1:255 29 0] [0x2 2 3 [2 0] [13 8]] (REQUEST)
D 0.012574952 _27_ MAC  COL 0 AODV 106 [0 ffffffff 1 800] [energy 89.995821 ei 0.002 es 0.000 et 0.000 er 0.002] ------- [1:255 -1:255 29 0] [0x2 2 3 [2 0] [13 8]] (REQUEST)
D 0.012575010 _24_ MAC  COL 0 AODV 106 [0 ffffffff 1 800] [energy 89.994973 ei 0.002 es 0.000 et 0.001 er 0.002] ------- [1:255 -1:255 29 0] [0x2 2 3 [2 0] [13 8]] (REQUEST)
D 0.012575018 _10_ MAC  COL 0 AODV 106 [0 ffffffff 1 800] [energy 89.995822 ei 0.002 es 0.000 et 0.000 er 0.002] ------- [1:255 -1:255 29 0] [0x2 2 3 [2 0] [13 8]] (REQUEST)
D 0.012575050 _0_ MAC  COL 0 AODV 106 [0 ffffffff 29 800] [energy 89.995821 ei 0.002 es 0.000 et 0.000 er 0.002] ------- [41:255 -1:255 29 0] [0x2 2 1 [0 0] [13 4]] (REQUEST)
D 0.012575058 _48_ MAC  COL 0 AODV 106 [0 ffffffff 1 800] [energy 89.995821 ei 0.002 es 0.000 et 0.000 er 0.002] ------- [1:255 -1:255 29 0] [0x2 2 3 [2 0] [13 8]] (REQUEST)
D 0.012575060 _50_ MAC  COL 0 AODV 106 [0 ffffffff 1 800] [energy 89.995822 ei 0.002 es 0.000 et 0.000 er 0.002] ------- [1:255 -1:255 29 0] [0x2 2 3 [2 0] [13 8]] (REQUEST)