D 0.005007353 _12_ MAC  COL 0 AODV 106 [0 ffffffff 24 800] [energy 89.998342 ei 0.001 es 0.000 et 0.000 er 0.001] ------- [36:255 -1:255 29 0] [0x2 2 4 [5 0] [13 10]] (REQUEST)
D 0.005007369 _10_ MAC  COL 0 AODV 106 [0 ffffffff 24 800] [energy 89.997494 ei 0.001 es 0.000 et 0.001 er 0.001] ------- [36:255 -1:255 29 0] [0x2 2 4 [5 0] [13 10]] (REQUEST)
D 0.005007373 _13_ MAC  COL 0 AODV 106 [0 ffffffff 24 800] [energy 89.996646 ei 0.001 es 0.000 et 0.002 er 0.001] ------- [36:255 -1:255 29 0] [0x2 2 4 [5 0] [13 10]] (REQUEST)
D 0.005007379 _2_ MAC  COL 0 AODV 106 [0 ffffffff 2a 800] [energy 89.998342 ei 0.001 es 0.000 et 0.000 er 0.001] ------- [42:255 -1:255 29 0] [0x2 2 1 [0 0] [13 4]] (REQUEST)
D 0.005007409 _5_ MAC  COL 0 AODV 106 [0 ffffffff 24 800] [energy 89.998342 ei 0.001 es 0.000 et 0.000 er 0.001] ------- [36:255 -1:255 29 0] [0x2 2 4 [5 0] [13 10]] (REQUEST)
D 0.005007412 _20_ MAC  COL 0 AODV 106 [0 ffffffff 24 800] [energy 89.998342 ei 0.001 es 0.000 et 0.000 er 0.001] ------- [36:255 -1:255 29 0] [0x2 2 4 [5 0] [13 10]] (REQUEST)
D 0.005007412 _24_ MAC  COL 0 AODV 106 [0 ffffffff 24 800] [energy 89.998342 ei 0.001 es 0.000 et 0.000 er 0.001] ------- [36:255 -1:255 29 0] [0x2 2 4 [5 0] [13 10]] (REQUEST)
D 0.005007431 _51_ MAC  COL 0 AODV 106 [0 ffffffff 24 800] [energy 89.998342 ei 0.001 es 0.000 et 0.000 er 0.001] ------- [36:255 -1:255 29 0] [0x2 2 4 [5 0] [13 10]] (REQUEST)
D 0.005007452 _49_ MAC  COL 0 AODV 106 [0 ffffffff 2a 800] [energy 89.998342 ei 0.001 es 0.000 et 0.000 er 0.001] ------- [42:255 -1:255 29 0] [0x2 2 1 [0 0] [13 4]] (REQUEST)
D 0.005007521 _43_ MAC  COL 0 AODV 106 [0 ffffffff 24 800] [energy 89.998342 ei 0.001 es 0.000 et 0.000 er 0.001] ------- [36:255 -1:255 29 0] [0x2 2 4 [5 0] [13 10]] (REQUEST)
D 0.005007527 _1_ MAC  COL 0 AODV 106 [0 ffffffff 24 800] [energy 89.998342 ei 0.001 es 0.000 et 0.000 er 0.001] ------- [36:255 -1:255 29 0] [0x2 2 4 [5 0] [13 10]] (REQUEST)
D 0.005007528 _30_ MAC  COL 0 AODV 106 [0 ffffffff 24 800] [energy 89.998342 ei 0.001 es 0.000 et 0.000 er 0.001] ------- [36:255 -1:255 29 0] [0x2 2 4 [5 0] [13 10]] (REQUEST)
D 0.005007534 _41_ MAC  COL 0 AODV 106 [0 ffffffff 24 800] [energy 89.998342 ei 0.001 es 0.000 et 0.000 er 0.001] ------- [36:255 -1:255 29 0] [0x2 2 4 [5 0] [13 10]] (REQUEST)
D 0.005007544 _18_ MAC  COL 0 AODV 106 [0 ffffffff 24 800] [energy 89.998342 ei 0.001 es 0.000 et 0.000 er 0.001] ------- [36:255 -1:255 29 0] [0x2 2 4 [5 0] [13 10]] (REQUEST)
D 0.005007574 _33_ MAC  COL 0 AODV 106 [0 ffffffff 24 800] [energy 89.998342 ei 0.001 es 0.000 et 0.000 er 0.001] ------- [36:255 -1:255 29 0] [0x2 2 4 [5 0] [13 10]] (REQUEST)
D 0.005007585 _22_ MAC  COL 0 AODV 106 [0 ffffffff 24 800] [energy 89.998342 ei 0.001 es 0.000 et 0.000 er 0.001] ------- [36:255 -1:255 29 0] [0x2 2 4 [5 0] [13 10]] (REQUEST)
D 0.005007591 _48_ MAC  COL 0 AODV 106 [0 ffffffff 24 800] [energy 89.997494 ei 0.001 es 0.000 et 0.001 er 0.001] ------- [36:255 -1:255 29 0] [0x2 2 4 [5 0] [13 10]] (REQUEST)
D 0.005007616 _37_ MAC  COL 0 AODV 106 [0 ffffffff 24 800] [energy 89.998342 ei 0.001 es 0.000 et 0.000 er 0.001] ------- [36:255 -1:255 29 0] [0x2 2 4 [5 0] [13 10]] (REQUEST)
D 0.005007629 _9_ MAC  COL 0 AODV 106 [0 ffffffff 24 800] [energy 89.998342 ei 0.001 es 0.000 et 0.000 er 0.001] ------- [36:255 -1:255 29 0] [0x2 2 4 [5 0] [13 10]] (REQUEST)
D 0.005007644 _29_ MAC  COL 0 AODV 106 [0 ffffffff 24 800] [energy 89.998342 ei 0.001 es 0.000 et 0.000 er 0.001] ------- [36:255 -1:255 29 0] [0x2 2 4 [5 0] [13 10]] (REQUEST)
D 0.005007653 _39_ MAC  COL 0 AODV 106 [0 ffffffff 24 800] [energy 89.998342 ei 0.001 es 0.000 et 0.000 er 0.001] ------- [36:255 -1:255 29 0] [0x2 2 4 [5 0] [13 10]] (REQUEST)
D 0.005007656 _16_ MAC  COL 0 AODV 106 [0 ffffffff 24 800] [energy 89.997494 ei 0.001 es 0.000 et 0.001 er 0.001] ------- [36:255 -1:255 29 0] [0x2 2 4 [5 0] [13 10]] (REQUEST)
D 0.005007657 _4_ MAC  COL 0 AODV 106 [0 ffffffff 24 800] [energy 89.998342 ei 0.001 es 0.000 et 0.000 er 0.001] ------- [36:255 -1:255 29 0] [0x2 2 4 [5 0] [13 10]] (REQUEST)
D 0.005007666 _27_ MAC  COL 0 AODV 106 [0 ffffffff 2a 800] [energy 89.998342 ei 0.001 es 0.000 et 0.000 er 0.001] ------- [42:255 -1:255 29 0] [0x2 2 1 [0 0] [13 4]] (REQUEST)
D 0.005007675 _28_ MAC  COL 0 AODV 106 [0 ffffffff 24 800] [energy 89.998342 ei 0.001 es 0.000 et 0.000 er 0.001] ------- [36:255 -1:255 29 0] [0x2 2 4 [5 0] [13 10]] (REQUEST)
D 0.005007683 _38_ MAC  COL 0 AODV 106 [0 ffffffff 24 800] [energy 89.998342 ei 0.001 es 0.000 et 0.000 er 0.001] ------- [36:255 -1:255 29 0] [0x2 2 4 [5 0] [13 10]] (REQUEST)
D 0.005007725 _35_ MAC  COL 0 AODV 106 [0 ffffffff 24 800] [energy 89.998342 ei 0.001 es 0.000 et 0.000 er 0.001] ------- [36:255 -1:255 29 0] [0x2 2 4 [5 0] [13 10]] (REQUEST)
D 0.005007755 _11_ MAC  COL 0 AODV 106 [0 ffffffff 24 800] [energy 89.998342 ei 0.001 es 0.000 et 0.000 er 0.001] ------- [36:255 -1:255 29 0] [0x2 2 4 [5 0] [13 10]] (REQUEST)
D 0.005007788 _21_ MAC  COL 0 AODV 106 [0 ffffffff 24 800] [energy 89.998342 ei 0.001 es 0.000 et 0.000 er 0.001] ------- [36:255 -1:255 29 0] [0x2 2 4 [5 0] [13 10]] (REQUEST)
D 0.005007810 _17_ MAC  COL 0 AODV 106 [0 ffffffff 24 800] [energy 89.998342 ei 0.001 es 0.000 et 0.000 er 0.001] ------- [36:255 -1:255 29 0] [0x2 2 4 [5 0] [13 10]] (REQUEST)
D 0.005007813 _46_ MAC  COL 0 AODV 106 [0 ffffffff 24 800] [energy 89.998342 ei 0.001 es 0.000 et 0.000 er 0.001] ------- [36:255 -1:255 29 0] [0x2 2 4 [5 0] [13 10]] (REQUEST)
D 0.005007819 _6_ MAC  COL 0 AODV 106 [0 ffffffff 24 800] [energy 89.998342 ei 0.001 es 0.000 et 0.000 er 0.001] ------- [36:255 -1:255 29 0] [0x2 2 4 [5 0] [13 10]] (REQUEST)
D 0.005007824 _3_ MAC  COL 0 AODV 106 [0 ffffffff 24 800] [energy 89.998342 ei 0.001 es 0.000 et 0.000 er 0.001] ------- [36:255 -1:255 29 0] [0x2 2 4 [5 0] [13 10]] (REQUEST)
D 0.005007830 _52_ MAC  COL 0 AODV 106 [0 ffffffff 24 800] [energy 89.998342 ei 0.001 es 0.000 et 0.000 er 0.001] ------- [36:255 -1:255 29 0] [0x2 2 4 [5 0] [13 10]] (REQUEST)
D 0.005007861 _53_ MAC  COL 0 AODV 106 [0 ffffffff 24 800] [energy 89.998342 ei 0.001 es 0.000 et 0.000 er 0.001] ------- [36:255 -1:255 29 0] [0x2 2 4 [5 0] [13 10]] (REQUEST)
D 0.005007881 _7_ MAC  COL 0 AODV 106 [0 ffffffff 24 800] [energy 89.998342 ei 0.001 es 0.000 et 0.000 er 0.001] ------- [36:255 -1:255 29 0] [0x2 2 4 [5 0] [13 10]] (REQUEST)
D 0.005007898 _31_ MAC  COL 0 AODV 106 [0 ffffffff 24 800] [energy 89.998342 ei 0.001 es 0.000 et 0.000 er 0.001] ------- [36:255 -1:255 29 0] [0x2 2 4 [5 0] [13 10]] (REQUEST)
D 0.005007914 _40_ MAC  COL 0 AODV 106 [0 ffffffff 24 800] [energy 89.998342 ei 0.001 es 0.000 et 0.000 er 0.001] ------- [36:255 -1:255 29 0] [0x2 2 4 [5 0] [13 10]] (REQUEST)
D 0.005007916 _47_ MAC  COL 0 AODV 106 [0 ffffffff 24 800] [energy 89.998342 ei 0.001 es 0.000 et 0.000 er 0.001] ------- [36:255 -1:255 29 0] [0x2 2 4 [5 0] [13 10]] (REQUEST)
D 0.005007949 _25_ MAC  COL 0 AODV 106 [0 ffffffff 24 800] [energy 89.998342 ei 0.001 es 0.000 et 0.000 er 0.001] ------- [36:255 -1:255 29 0] [0x2 2 4 [5 0] [13 10]] (REQUEST)
D 0.005007954 _34_ MAC  COL 0 AODV 106 [0 ffffffff 24 800] [energy 89.998342 ei 0.001 es 0.000 et 0.000 er 0.001] ------- [36:255 -1:255 29 0] [0x2 2 4 [5 0] [13 10]] (REQUEST)
D 0.005855353 _12_ MAC  COL 0 AODV 106 [0 ffffffff 2a 800] [energy 89.998342 ei 0.001 es 0.000 et 0.000 er 0.001] ------- [42:255 -1:255 29 0] [0x2 2 1 [0 0] [13 4]] (REQUEST)
D 0.005855369 _10_ MAC  COL 0 AODV 106 [0 ffffffff 2a 800] [energy 89.997494 ei 0.001 es 0.000 et 0.001 er 0.001] ------- [42:255 -1:255 29 0] [0x2 2 1 [0 0] [13 4]] (REQUEST)
D 0.005855373 _13_ MAC  COL 0 AODV 106 [0 ffffffff 2a 800] [energy 89.996646 ei 0.001 es 0.000 et 0.002 er 0.001] ------- [42:255 -1:255 29 0] [0x2 2 1 [0 0] [13 4]] (REQUEST)
D 0.005855379 _2_ MAC  COL 0 AODV 106 [0 ffffffff 24 800] [energy 89.998342 ei 0.001 es 0.000 et 0.000 er 0.001] ------- [36:255 -1:255 29 0] [0x2 2 4 [5 0] [13 10]] (REQUEST)
D 0.005855409 _5_ MAC  COL 0 AODV 106 [0 ffffffff 2a 800] [energy 89.998342 ei 0.001 es 0.000 et 0.000 er 0.001] ------- [42:255 -1:255 29 0] [0x2 2 1 [0 0] [13 4]] (REQUEST)
D 0.005855412 _20_ MAC  COL 0 AODV 106 [0 ffffffff 2a 800] [energy 89.998342 ei 0.001 es 0.000 et 0.000 er 0.001] ------- [42:255 -1:255 29 0] [0x2 2 1 [0 0] [13 4]] (REQUEST)
D 0.005855412 _24_ MAC  COL 0 AODV 106 [0 ffffffff 2a 800] [energy 89.998342 ei 0.001 es 0.000 et 0.000 er 0.001] ------- [42:255 -1:255 29 0] [0x2 2 1 [0 0] [13 4]] (REQUEST)
D 0.005855431 _51_ MAC  COL 0 AODV 106 [0 ffffffff 2a 800] [energy 89.998342 ei 0.001 es 0.000 et 0.000 er 0.001] ------- [42:255 -1:255 29 0] [0x2 2 1 [0 0] [13 4]] (REQUEST)
D 0.005855452 _49_ MAC  COL 0 AODV 106 [0 ffffffff 24 800] [energy 89.998342 ei 0.001 es 0.000 et 0.000 er 0.001] ------- [36:255 -1:255 29 0] [0x2 2 4 [5 0] [13 10]] (REQUEST)
D 0.005855521 _43_ MAC  COL 0 AODV 106 [0 ffffffff 2a 800] [energy 89.998342 ei 0.001 es 0.000 et 0.000 er 0.001] ------- [42:255 -1:255 29 0] [0x2 2 1 [0 0] [13 4]] (REQUEST)
D 0.005855527 _1_ MAC  COL 0 AODV 106 [0 ffffffff 2a 800] [energy 89.998342 ei 0.001 es 0.000 et 0.000 er 0.001] ------- [42:255 -1:255 29 0] [0x2 2 1 [0 0] [13 4]] (REQUEST)
D 0.005855528 _30_ MAC  COL 0 AODV 106 [0 ffffffff 2a 800] [energy 89.998342 ei 0.001 es 0.000 et 0.000 er 0.001] ------- [42:255 -1:255 29 0] [0x2 2 1 [0 0] [13 4]] (REQUEST)
D 0.005855534 _41_ MAC  COL 0 AODV 106 [0 ffffffff 2a 800] [energy 89.998342 ei 0.001 es 0.000 et 0.000 er 0.001] ------- [42:255 -1:255 29 0] [0x2 2 1 [0 0] [13 4]] (REQUEST)
D 0.005855544 _18_ MAC  COL 0 AODV 106 [0 ffffffff 2a 800] [energy 89.998342 ei 0.001 es 0.000 et 0.000 er 0.001] ------- [42:255 -1:255 29 0] [0x2 2 1 [0 0] [13 4]] (REQUEST)
D 0.005855574 _33_ MAC  COL 0 AODV 106 [0 ffffffff 2a 800] [energy 89.998342 ei 0.001 es 0.000 et 0.000 er 0.001] ------- [42:255 -1:255 29 0] [0x2 2 1 [0 0] [13 4]] (REQUEST)
D 0.005855585 _22_ MAC  COL 0 AODV 106 [0 ffffffff 2a 800] [energy 89.998342 ei 0.001 es 0.000 et 0.000 er 0.001] ------- [42:255 -1:255 29 0] [0x2 2 1 [0 0] [13 4]] (REQUEST)
D 0.005855591 _48_ MAC  COL 0 AODV 106 [0 ffffffff 2a 800] [energy 89.997494 ei 0.001 es 0.000 et 0.001 er 0.001] ------- [42:255 -1:255 29 0] [0x2 2 1 [0 0] [13 4]] (REQUEST)
D 0.005855616 _37_ MAC  COL 0 AODV 106 [0 ffffffff 2a 800] [energy 89.998342 ei 0.001 es 0.000 et 0.000 er 0.001] ------- [42:255 -1:255 29 0] [0x2 2 1 [0 0] [13 4]] (REQUEST)
D 0.005855629 _9_ MAC  COL 0 AODV 106 [0 ffffffff 2a 800] [energy 89.998342 ei 0.001 es 0.000 et 0.000 er 0.001] ------- [42:255 -1:255 29 0] [0x2 2 1 [0 0] [13 4]] (REQUEST)
D 0.005855644 _29_ MAC  COL 0 AODV 106 [0 ffffffff 2a 800] [energy 89.998342 ei 0.001 es 0.000 et 0.000 er 0.001] ------- [42:255 -1:255 29 0] [0x2 2 1 [0 0] [13 4]] (REQUEST)
D 0.005855653 _39_ MAC  COL 0 AODV 106 [0 ffffffff 2a 800] [energy 89.998342 ei 0.001 es 0.000 et 0.000 er 0.001] ------- [42:255 -1:255 29 0] [0x2 2 1 [0 0] [13 4]] (REQUEST)
D 0.005855656 _16_ MAC  COL 0 AODV 106 [0 ffffffff 2a 800] [energy 89.997494 ei 0.001 es 0.000 et 0.001 er 0.001] ------- [42:255 -1:255 29 0] [0x2 2 1 [0 0] [13 4]] (REQUEST)
D 0.005855657 _4_ MAC  COL 0 AODV 106 [0 ffffffff 2a 800] [energy 89.998342 ei 0.001 es 0.000 et 0.000 er 0.001] ------- [42:255 -1:255 29 0] [0x2 2 1 [0 0] [13 4]] (REQUEST)
D 0.005855666 _27_ MAC  COL 0 AODV 106 [0 ffffffff 24 800] [energy 89.998342 ei 0.001 es 0.000 et 0.000 er 0.001] ------- [36:255 -1:255 29 0] [0x2 2 4 [5 0] [13 10]] (REQUEST)
D 0.005855675 _28_ MAC  COL 0 AODV 106 [0 ffffffff 2a 800] [energy 89.998342 ei 0.001 es 0.000 et 0.000 er 0.001] ------- [42:255 -1:255 29 0] [0x2 2 1 [0 0] [13 4]] (REQUEST)
D 0.005855683 _38_ MAC  COL 0 AODV 106 [0 ffffffff 2a 800] [energy 89.998342 ei 0.001 es 0.000 et 0.000 er 0.001] ------- [42:255 -1:255 29 0] [0x2 2 1 [0 0] [13 4]] (REQUEST)
D 0.005855725 _35_ MAC  COL 0 AODV 106 [0 ffffffff 2a 800] [energy 89.998342 ei 0.001 es 0.000 et 0.000 er 0.001] ------- [42:255 -1:255 29 0] [0x2 2 1 [0 0] [13 4]] (REQUEST)
D 0.005855755 _11_ MAC  COL 0 AODV 106 [0 ffffffff 2a 800] [energy 89.998342 ei 0.001 es 0.000 et 0.000 er 0.001] ------- [42:255 -1:255 29 0] [0x2 2 1 [0 0] [13 4]] (REQUEST)
D 0.005855788 _21_ MAC  COL 0 AODV 106 [0 ffffffff 2a 800] [energy 89.998342 ei 0.001 es 0.000 et 0.000 er 0.001] ------- [42:255 -1:255 29 0] [0x2 2 1 [0 0] [13 4]] (REQUEST)
D 0.005855810 _17_ MAC  COL 0 AODV 106 [0 ffffffff 2a 800] [energy 89.998342 ei 0.001 es 0.000 et 0.000 er 0.001] ------- [42:255 -1:255 29 0] [0x2 2 1 [0 0] [13 4]] (REQUEST)
D 0.005855813 _46_ MAC  COL 0 AODV 106 [0 ffffffff 2a 800] [energy 89.998342 ei 0.001 es 0.000 et 0.000 er 0.001] ------- [42:255 -1:255 29 0] [0x2 2 1 [0 0] [13 4]] (REQUEST)
D 0.005855819 _6_ MAC  COL 0 AODV 106 [0 ffffffff 2a 800] [energy 89.998342 ei 0.001 es 0.000 et 0.000 er 0.001] ------- [42:255 -1:255 29 0] [0x2 2 1 [0 0] [13 4]] (REQUEST)
D 0.005855824 _3_ MAC  COL 0 AODV 106 [0 ffffffff 2a 800] [energy 89.998342 ei 0.001 es 0.000 et 0.000 er 0.001] ------- [42:255 -1:255 29 0] [0x2 2 1 [0 0] [13 4]] (REQUEST)
D 0.005855830 _52_ MAC  COL 0 AODV 106 [0 ffffffff 2a 800] [energy 89.998342 ei 0.001 es 0.000 et 0.000 er 0.001] ------- [42:255 -1:255 29 0] [0x2 2 1 [0 0] [13 4]] (REQUEST)
D 0.005855848 _44_ MAC  COL 0 AODV 106 [0 ffffffff 2a 800] [energy 89.998342 ei 0.001 es 0.000 et 0.000 er 0.001] ------- [42:255 -1:255 29 0] [0x2 2 1 [0 0] [13 4]] (REQUEST)
D 0.005855861 _53_ MAC  COL 0 AODV 106 [0 ffffffff 2a 800] [energy 89.998342 ei 0.001 es 0.000 et 0.000 er 0.001] ------- [42:255 -1:255 29 0] [0x2 2 1 [0 0] [13 4]] (REQUEST)
D 0.005855881 _7_ MAC  COL 0 AODV 106 [0 ffffffff 2a 800] [energy 89.998342 ei 0.001 es 0.000 et 0.000 er 0.001] ------- [42:255 -1:255 29 0] [0x2 2 1 [0 0] [13 4]] (REQUEST)
D 0.005855897 _15_ MAC  COL 0 AODV 106 [0 ffffffff 2a 800] [energy 89.998342 ei 0.001 es 0.000 et 0.000 er 0.001] ------- [42:255 -1:255 29 0] [0x2 2 1 [0 0] [13 4]] (REQUEST)
D 0.005855898 _31_ MAC  COL 0 AODV 106 [0 ffffffff 2a 800] [energy 89.998342 ei 0.001 es 0.000 et 0.000 er 0.001] ------- [42:255 -1:255 29 0] [0x2 2 1 [0 0] [13 4]] (REQUEST)
D 0.005855914 _40_ MAC  COL 0 AODV 106 [0 ffffffff 2a 800] [energy 89.998342 ei 0.001 es 0.000 et 0.000 er 0.001] ------- [42:255 -1:255 29 0] [0x2 2 1 [0 0] [13 4]] (REQUEST)
D 0.005855916 _47_ MAC  COL 0 AODV 106 [0 ffffffff 2a 800] [energy 89.998342 ei 0.001 es 0.000 et 0.000 er 0.001] ------- [42:255 -1:255 29 0] [0x2 2 1 [0 0] [13 4]] (REQUEST)
D 0.011801208 _3_ MAC  COL 0 AODV 106 [0 ffffffff c 800] [energy 89.996446 ei 0.002 es 0.000 et 0.000 er 0.002] ------- [12:255 -1:255 29 0] [0x2 2 1 [0 0] [13 4]] (REQUEST)
D 0.011801222 _18_ MAC  COL 0 AODV 106 [0 ffffffff c 800] [energy 89.996446 ei 0.002 es 0.000 et 0.000 er 0.002] ------- [12:255 -1:255 29 0] [0x2 2 1 [0 0] [13 4]] (REQUEST)
D 0.011801256 _36_ MAC  COL 0 AODV 106 [0 ffffffff c 800] [energy 89.995598 ei 0.002 es 0.000 et 0.001 er 0.002] ------- [12:255 -1:255 29 0] [0x2 2 1 [0 0] [13 4]] (REQUEST)
D 0.011801315 _42_ MAC  COL 0 AODV 106 [0 ffffffff 18 800] [energy 89.995597 ei 0.002 es 0.000 et 0.001 er 0.002] ------- [24:255 -1:255 29 0] [0x2 2 1 [0 0] [13 4]] (REQUEST)
D 0.011801368 _2_ MAC  COL 0 AODV 106 [0 ffffffff 18 800] [energy 89.996445 ei 0.002 es 0.000 et 0.000 er 0.002] ------- [24:255 -1:255 29 0] [0x2 2 1 [0 0] [13 4]] (REQUEST)
D 0.011801439 _1_ MAC  COL 0 AODV 106 [0 ffffffff c 800] [energy 89.996446 ei 0.002 es 0.000 et 0.000 er 0.002] ------- [12:255 -1:255 29 0] [0x2 2 1 [0 0] [13 4]] (REQUEST)
D 0.011801462 _53_ MAC  COL 0 AODV 106 [0 ffffffff 18 800] [energy 89.996445 ei 0.002 es 0.000 et 0.000 er 0.002] ------- [24:255 -1:255 29 0] [0x2 2 1 [0 0] [13 4]] (REQUEST)
D 0.011801479 _20_ MAC  COL 0 AODV 106 [0 ffffffff c 800] [energy 89.996446 ei 0.002 es 0.000 et 0.000 er 0.002] ------- [12:255 -1:255 29 0] [0x2 2 1 [0 0] [13 4]] (REQUEST)
D 0.011801503 _17_ MAC  COL 0 AODV 106 [0 ffffffff 18 800] [energy 89.996445 ei 0.002 es 0.000 et 0.000 er 0.002] ------- [24:255 -1:255 29 0] [0x2 2 1 [0 0] [13 4]] (REQUEST)
D 0.011801507 _46_ MAC  COL 0 AODV 106 [0 ffffffff c 800] [energy 89.996446 ei 0.002 es 0.000 et 0.000 er 0.002] ------- [12:255 -1:255 29 0] [0x2 2 1 [0 0] [13 4]] (REQUEST)
D 0.011801509 _13_ MAC  COL 0 AODV 106 [0 ffffffff c 800] [energy 89.994749 ei 0.002 es 0.000 et 0.002 er 0.002] ------- [12:255 -1:255 29 0] [0x2 2 1 [0 0] [13 4]] (REQUEST)
D 0.011801538 _7_ MAC  COL 0 AODV 106 [0 ffffffff c 800] [energy 89.996445 ei 0.002 es 0.000 et 0.000 er 0.002] ------- [12:255 -1:255 29 0] [0x2 2 1 [0 0] [13 4]] (REQUEST)
D 0.011801574 _47_ MAC  COL 0 AODV 106 [0 ffffffff c 800] [energy 89.996446 ei 0.002 es 0.000 et 0.000 er 0.002] ------- [12:255 -1:255 29 0] [0x2 2 1 [0 0] [13 4]] (REQUEST)
D 0.011801577 _31_ MAC  COL 0 AODV 106 [0 ffffffff 18 800] [energy 89.996445 ei 0.002 es 0.000 et 0.000 er 0.002] ------- [24:255 -1:255 29 0] [0x2 2 1 [0 0] [13 4]] (REQUEST)
D 0.011801597 _43_ MAC  COL 0 AODV 106 [0 ffffffff 18 800] [energy 89.996445 ei 0.002 es 0.000 et 0.000 er 0.002] ------- [24:255 -1:255 29 0] [0x2 2 1 [0 0] [13 4]] (REQUEST)
D 0.011801620 _33_ MAC  COL 0 AODV 106 [0 ffffffff 18 800] [energy 89.996445 ei 0.002 es 0.000 et 0.000 er 0.002] ------- [24:255 -1:255 29 0] [0x2 2 1 [0 0] [13 4]] (REQUEST)
D 0.011801627 _30_ MAC  COL 0 AODV 106 [0 ffffffff c 800] [energy 89.996445 ei 0.002 es 0.000 et 0.000 er 0.002] ------- [12:255 -1:255 29 0] [0x2 2 1 [0 0] [13 4]] (REQUEST)
D 0.011801637 _51_ MAC  COL 0 AODV 106 [0 ffffffff c 800] [energy 89.996445 ei 0.002 es 0.000 et 0.000 er 0.002] ------- [12:255 -1:255 29 0] [0x2 2 1 [0 0] [13 4]] (REQUEST)
D 0.011801651 _32_ MAC  COL 0 AODV 106 [0 ffffffff c 800] [energy 89.996445 ei 0.002 es 0.000 et 0.000 er 0.002] ------- [12:255 -1:255 29 0] [0x2 2 1 [0 0] [13 4]] (REQUEST)
D 0.011801653 _9_ MAC  COL 0 AODV 106 [0 ffffffff c 800] [energy 89.996445 ei 0.002 es 0.000 et 0.000 er 0.002] ------- [12:255 -1:255 29 0] [0x2 2 1 [0 0] [13 4]] (REQUEST)
D 0.011801657 _49_ MAC  COL 0 AODV 106 [0 ffffffff 18 800] [energy 89.995597 ei 0.002 es 0.000 et 0.001 er 0.002] ------- [24:255 -1:255 29 0] [0x2 2 1 [0 0] [13 4]] (REQUEST)
D 0.011801675 _39_ MAC  COL 0 AODV 106 [0 ffffffff 18 800] [energy 89.996445 ei 0.002 es 0.000 et 0.000 er 0.002] ------- [24:255 -1:255 29 0] [0x2 2 1 [0 0] [13 4]] (REQUEST)
D 0.011801681 _4_ MAC  COL 0 AODV 106 [0 ffffffff c 800] [energy 89.996445 ei 0.002 es 0.000 et 0.000 er 0.002] ------- [12:255 -1:255 29 0] [0x2 2 1 [0 0] [13 4]] (REQUEST)
D 0.011801690 _5_ MAC  COL 0 AODV 106 [0 ffffffff c 800] [energy 89.996445 ei 0.002 es 0.000 et 0.000 er 0.002] ------- [12:255 -1:255 29 0] [0x2 2 1 [0 0] [13 4]] (REQUEST)
D 0.011801701 _0_ MAC  COL 0 AODV 106 [0 ffffffff c 800] [energy 89.996446 ei 0.002 es 0.000 et 0.000 er 0.002] ------- [12:255 -1:255 29 0] [0x2 2 1 [0 0] [13 4]] (REQUEST)
D 0.011801708 _48_ MAC  COL 0 AODV 106 [0 ffffffff c 800] [energy 89.995597 ei 0.002 es 0.000 et 0.001 er 0.002] ------- [12:255 -1:255 29 0] [0x2 2 1 [0 0] [13 4]] (REQUEST)
D 0.011801726 _37_ MAC  COL 0 AODV 106 [0 ffffffff 18 800] [energy 89.996445 ei 0.002 es 0.000 et 0.000 er 0.002] ------- [24:255 -1:255 29 0] [0x2 2 1 [0 0] [13 4]] (REQUEST)
D 0.011801735 _45_ MAC  COL 0 AODV 106 [0 ffffffff 18 800] [energy 89.996445 ei 0.002 es 0.000 et 0.000 er 0.002] ------- [24:255 -1:255 29 0] [0x2 2 1 [0 0] [13 4]] (REQUEST)
D 0.011801754 _11_ MAC  COL 0 AODV 106 [0 ffffffff c 800] [energy 89.995597 ei 0.002 es 0.000 et 0.001 er 0.002] ------- [12:255 -1:255 29 0] [0x2 2 1 [0 0] [13 4]] (REQUEST)
D 0.011801755 _26_ MAC  COL 0 AODV 106 [0 ffffffff 18 800] [energy 89.996445 ei 0.002 es 0.000 et 0.000 er 0.002] ------- [24:255 -1:255 29 0] [0x2 2 1 [0 0] [13 4]] (REQUEST)
D 0.011801760 _6_ MAC  COL 0 AODV 106 [0 ffffffff c 800] [energy 89.996446 ei 0.002 es 0.000 et 0.000 er 0.002] ------- [12:255 -1:255 29 0] [0x2 2 1 [0 0] [13 4]] (REQUEST)
D 0.011801790 _22_ MAC  COL 0 AODV 106 [0 ffffffff c 800] [energy 89.996445 ei 0.002 es 0.000 et 0.000 er 0.002] ------- [12:255 -1:255 29 0] [0x2 2 1 [0 0] [13 4]] (REQUEST)
D 0.011801830 _50_ MAC  COL 0 AODV 106 [0 ffffffff 18 800] [energy 89.996445 ei 0.002 es 0.000 et 0.000 er 0.002] ------- [24:255 -1:255 29 0] [0x2 2 1 [0 0] [13 4]] (REQUEST)
D 0.011801846 _38_ MAC  COL 0 AODV 106 [0 ffffffff c 800] [energy 89.995597 ei 0.002 es 0.000 et 0.001 er 0.002] ------- [12:255 -1:255 29 0] [0x2 2 1 [0 0] [13 4]] (REQUEST)
D 0.011801848 _54_ MAC  COL 0 AODV 106 [0 ffffffff c 800] [energy 89.996445 ei 0.002 es 0.000 et 0.000 er 0.002] ------- [12:255 -1:255 29 0] [0x2 2 1 [0 0] [13 4]] (REQUEST)
D 0.011801853 _35_ MAC  COL 0 AODV 106 [0 ffffffff c 800] [energy 89.996445 ei 0.002 es 0.000 et 0.000 er 0.002] ------- [12:255 -1:255 29 0] [0x2 2 1 [0 0] [13 4]] (REQUEST)
D 0.011801858 _23_ MAC  COL 0 AODV 106 [0 ffffffff 18 800] [energy 89.996445 ei 0.002 es 0.000 et 0.000 er 0.002] ------- [24:255 -1:255 29 0] [0x2 2 1 [0 0] [13 4]] (REQUEST)
D 0.011801871 _27_ MAC  COL 0 AODV 106 [0 ffffffff 18 800] [energy 89.996445 ei 0.002 es 0.000 et 0.000 er 0.002] ------- [24:255 -1:255 29 0] [0x2 2 1 [0 0] [13 4]] (REQUEST)
D 0.011801886 _55_ MAC  COL 0 AODV 106 [0 ffffffff c 800] [energy 89.996445 ei 0.002 es 0.000 et 0.000 er 0.002] ------- [12:255 -1:255 29 0] [0x2 2 1 [0 0] [13 4]] (REQUEST)
D 0.011801898 _21_ MAC  COL 0 AODV 106 [0 ffffffff c 800] [energy 89.996445 ei 0.002 es 0.000 et 0.000 er 0.002] ------- [12:255 -1:255 29 0] [0x2 2 1 [0 0] [13 4]] (REQUEST)
D 0.011801985 _34_ MAC  COL 0 AODV 106 [0 ffffffff c 800] [energy 89.995597 ei 0.002 es 0.000 et 0.001 er 0.002] ------- [12:255 -1:255 29 0] [0x2 2 1 [0 0] [13 4]] (REQUEST)
D 0.011802009 _8_ MAC  COL 0 AODV 106 [0 ffffffff c 800] [energy 89.996445 ei 0.002 es 0.000 et 0.000 er 0.002] ------- [12:255 -1:255 29 0] [0x2 2 1 [0 0] [13 4]] (REQUEST)
D 0.011802013 _25_ MAC  COL 0 AODV 106 [0 ffffffff c 800] [energy 89.996445 ei 0.002 es 0.000 et 0.000 er 0.002] ------- [12:255 -1:255 29 0] [0x2 2 1 [0 0] [13 4]] (REQUEST)
D 0.011802031 _19_ MAC  COL 0 AODV 106 [0 ffffffff c 800] [energy 89.996445 ei 0.002 es 0.000 et 0.000 er 0.002] ------- [12:255 -1:255 29 0] [0x2 2 1 [0 0] [13 4]] (REQUEST)
D 0.012649208 _3_ MAC  COL 0 AODV 106 [0 ffffffff 18 800] [energy 89.996446 ei 0.002 es 0.000 et 0.000 er 0.002] ------- [24:255 -1:255 29 0] [0x2 2 1 [0 0] [13 4]] (REQUEST)
D 0.012649222 _18_ MAC  COL 0 AODV 106 [0 ffffffff 18 800] [energy 89.996446 ei 0.002 es 0.000 et 0.000 er 0.002] ------- [24:255 -1:255 29 0] [0x2 2 1 [0 0] [13 4]] (REQUEST)
D 0.012649256 _36_ MAC  COL 0 AODV 106 [0 ffffffff 18 800] [energy 89.995598 ei 0.002 es 0.000 et 0.001 er 0.002] ------- [24:255 -1:255 29 0] [0x2 2 1 [0 0] [13 4]] (REQUEST)
D 0.012649315 _42_ MAC  COL 0 AODV 106 [0 ffffffff c 800] [energy 89.995597 ei 0.002 es 0.000 et 0.001 er 0.002] ------- [12:255 -1:255 29 0] [0x2 2 1 [0 0] [13 4]] (REQUEST)
D 0.012649368 _2_ MAC  COL 0 AODV 106 [0 ffffffff c 800] [energy 89.996445 ei 0.002 es 0.000 et 0.000 er 0.002] ------- [12:255 -1:255 29 0] [0x2 2 1 [0 0] [13 4]] (REQUEST)
D 0.012649439 _1_ MAC  COL 0 AODV 106 [0 ffffffff 18 800] [energy 89.996446 ei 0.002 es 0.000 et 0.000 er 0.002] ------- [24:255 -1:255 29 0] [0x2 2 1 [0 0] [13 4]] (REQUEST)
D 0.012649462 _53_ MAC  COL 0 AODV 106 [0 ffffffff c 800] [energy 89.996445 ei 0.002 es 0.000 et 0.000 er 0.002] ------- [12:255 -1:255 29 0] [0x2 2 1 [0 0] [13 4]] (REQUEST)
D 0.012649479 _20_ MAC  COL 0 AODV 106 [0 ffffffff 18 800] [energy 89.996446 ei 0.002 es 0.000 et 0.000 er 0.002] ------- [24:255 -1:255 29 0] [0x2 2 1 [0 0] [13 4]] (REQUEST)
D 0.012649503 _17_ MAC  COL 0 AODV 106 [0 ffffffff c 800] [energy 89.996445 ei 0.002 es 0.000 et 0.000 er 0.002] ------- [12:255 -1:255 29 0] [0x2 2 1 [0 0] [13 4]] (REQUEST)
D 0.012649507 _46_ MAC  COL 0 AODV 106 [0 ffffffff 18 800] [energy 89.996446 ei 0.002 es 0.000 et 0.000 er 0.002] ------- [24:255 -1:255 29 0] [0x2 2 1 [0 0] [13 4]] (REQUEST)
D 0.012649509 _13_ MAC  COL 0 AODV 106 [0 ffffffff 18 800] [energy 89.994749 ei 0.002 es 0.000 et 0.002 er 0.002] ------- [24:255 -1:255 29 0] [0x2 2 1 [0 0] [13 4]] (REQUEST)
D 0.012649538 _7_ MAC  COL 0 AODV 106 [0 ffffffff 18 800] [energy 89.996445 ei 0.002 es 0.000 et 0.000 er 0.002] ------- [24:255 -1:255 29 0] [0x2 2 1 [0 0] [13 4]] (REQUEST)
D 0.012649574 _47_ MAC  COL 0 AODV 106 [0 ffffffff 18 800] [energy 89.996446 ei 0.002 es 0.000 et 0.000 er 0.002] ------- [24:255 -1:255 29 0] [0x2 2 1 [0 0] [13 4]] (REQUEST)
D 0.012649577 _31_ MAC  COL 0 AODV 106 [0 ffffffff c 800] [energy 89.996445 ei 0.002 es 0.000 et 0.000 er 0.002] ------- [12:255 -1:255 29 0] [0x2 2 1 [0 0] [13 4]] (REQUEST)
D 0.012649597 _43_ MAC  COL 0 AODV 106 [0 ffffffff c 800] [energy 89.996445 ei 0.002 es 0.000 et 0.000 er 0.002] ------- [12:255 -1:255 29 0] [0x2 2 1 [0 0] [13 4]] (REQUEST)
D 0.012649620 _33_ MAC  COL 0 AODV 106 [0 ffffffff c 800] [energy 89.996445 ei 0.002 es 0.000 et 0.000 er 0.002] ------- [12:255 -1:255 29 0] [0x2 2 1 [0 0] [13 4]] (REQUEST)
D 0.012649627 _30_ MAC  COL 0 AODV 106 [0 ffffffff 18 800] [energy 89.996445 ei 0.002 es 0.000 et 0.000 er 0.002] ------- [24:255 -1:255 29 0] [0x2 2 1 [0 0] [13 4]] (REQUEST)
D 0.012649637 _51_ MAC  COL 0 AODV 106 [0 ffffffff 18 800] [energy 89.996445 ei 0.002 es 0.000 et 0.000 er 0.002] ------- [24:255 -1:255 29 0] [0x2 2 1 [0 0] [13 4]] (REQUEST)
D 0.012649651 _32_ MAC  COL 0 AODV 106 [0 ffffffff 18 800] [energy 89.996445 ei 0.002 es 0.000 et 0.000 er 0.002] ------- [24:255 -1:255 29 0] [0x2 2 1 [0 0] [13 4]] (REQUEST)
D 0.012649653 _9_ MAC  COL 0 AODV 106 [0 ffffffff 18 800] [energy 89.996445 ei 0.002 es 0.000 et 0.000 er 0.002] ------- [24:255 -1:255 29 0] [0x2 2 1 [0 0] [13 4]] (REQUEST)
D 0.012649657 _49_ MAC  COL 0 AODV 106 [0 ffffffff c 800] [energy 89.995597 ei 0.002 es 0.000 et 0.001 er 0.002] ------- [12:255 -1:255 29 0] [0x2 2 1 [0 0] [13 4]] (REQUEST)
D 0.012649675 _39_ MAC  COL 0 AODV 106 [0 ffffffff c 800] [energy 89.996445 ei 0.002 es 0.000 et 0.000 er 0.002] ------- [12:255 -1:255 29 0] [0x2 2 1 [0 0] [13 4]] (REQUEST)
D 0.012649681 _4_ MAC  COL 0 AODV 106 [0 ffffffff 18 800] [energy 89.996445 ei 0.002 es 0.000 et 0.000 er 0.002] ------- [24:255 -1:255 29 0] [0x2 2 1 [0 0] [13 4]] (REQUEST)
D 0.012649690 _5_ MAC  COL 0 AODV 106 [0 ffffffff 18 800] [energy 89.996445 ei 0.002 es 0.000 et 0.000 er 0.002] ------- [24:255 -1:255 29 0] [0x2 2 1 [0 0] [13 4]] (REQUEST)
D 0.012649701 _0_ MAC  COL 0 AODV 106 [0 ffffffff 18 800] [energy 89.996446 ei 0.002 es 0.000 et 0.000 er 0.002] ------- [24:255 -1:255 29 0] [0x2 2 1 [0 0] [13 4]] (REQUEST)
D 0.012649708 _48_ MAC  COL 0 AODV 106 [0 ffffffff 18 800] [energy 89.995597 ei 0.002 es 0.000 et 0.001 er 0.002] ------- [24:255 -1:255 29 0] [0x2 2 1 [0 0] [13 4]] (REQUEST)
D 0.012649754 _11_ MAC  COL 0 AODV 106 [0 ffffffff 18 800] [energy 89.995597 ei 0.002 es 0.000 et 0.001 er 0.002] ------- [24:255 -1:255 29 0] [0x2 2 1 [0 0] [13 4]] (REQUEST)
D 0.012649760 _6_ MAC  COL 0 AODV 106 [0 ffffffff 18 800] [energy 89.996446 ei 0.002 es 0.000 et 0.000 er 0.002] ------- [24:255 -1:255 29 0] [0x2 2 1 [0 0] [13 4]] (REQUEST)
D 0.012649790 _22_ MAC  COL 0 AODV 106 [0 ffffffff 18 800] [energy 89.996445 ei 0.002 es 0.000 et 0.000 er 0.002] ------- [24:255 -1:255 29 0] [0x2 2 1 [0 0] [13 4]] (REQUEST)
D 0.013083936 _21_ MAC  COL 0 AODV 106 [0 ffffffff 1e 800] [energy 89.995863 ei 0.002 es 0.000 et 0.000 er 0.002] ------- [30:255 -1:255 29 0] [0x2 2 1 [0 0] [13 4]] (REQUEST)
D 0.013083985 _11_ MAC  COL 0 AODV 106 [0 ffffffff 1e 800] [energy 89.995015 ei 0.002 es 0.000 et 0.001 er 0.002] ------- [30:255 -1:255 29 0] [0x2 2 1 [0 0] [13 4]] (REQUEST)
D 0.013083988 _38_ MAC  COL 0 AODV 106 [0 ffffffff 1e 800] [energy 89.995015 ei 0.002 es 0.000 et 0.001 er 0.002] ------- [30:255 -1:255 29 0] [0x2 2 1 [0 0] [13 4]] (REQUEST)
D 0.013083998 _5_ MAC  COL 0 AODV 106 [0 ffffffff 1e 800] [energy 89.995863 ei 0.002 es 0.000 et 0.000 er 0.002] ------- [30:255 -1:255 29 0] [0x2 2 1 [0 0] [13 4]] (REQUEST)
D 0.013083999 _48_ MAC  COL 0 AODV 106 [0 ffffffff 1e 800] [energy 89.995015 ei 0.002 es 0.000 et 0.001 er 0.002] ------- [30:255 -1:255 29 0] [0x2 2 1 [0 0] [13 4]] (REQUEST)
D 0.013084044 _40_ MAC  COL 0 AODV 106 [0 ffffffff 1e 800] [energy 89.995015 ei 0.002 es 0.000 et 0.001 er 0.002] ------- [30:255 -1:255 29 0] [0x2 2 1 [0 0] [13 4]] (REQUEST)
D 0.013084150 _25_ MAC  COL 0 AODV 106 [0 ffffffff 1e 800] [energy 89.995863 ei 0.002 es 0.000 et 0.000 er 0.002] ------- [30:255 -1:255 29 0] [0x2 2 1 [0 0] [13 4]] (REQUEST)
D 0.013084174 _8_ MAC  COL 0 AODV 106 [0 ffffffff 1e 800] [energy 89.995863 ei 0.002 es 0.000 et 0.000 er 0.002] ------- [30:255 -1:255 29 0] [0x2 2 1 [0 0] [13 4]] (REQUEST)
D 0.013084192 _4_ MAC  COL 0 AODV 106 [0 ffffffff 1e 800] [energy 89.995863 ei 0.002 es 0.000 et 0.000 er 0.002] ------- [30:255 -1:255 29 0] [0x2 2 1 [0 0] [13 4]] (REQUEST)
D 0.013084223 _34_ MAC  COL 0 AODV 106 [0 ffffffff 1e 800] [energy 89.995015 ei 0.002 es 0.000 et 0.001 er 0.002] ------- [30:255 -1:255 29 0] [0x2 2 1 [0 0] [13 4]] (REQUEST)
D 0.013084262 _16_ MAC  COL 0 AODV 106 [0 ffffffff 1e 800] [energy 89.994166 ei 0.002 es 0.000 et 0.002 er 0.002] ------- [30:255 -1:255 29 0] [0x2 2 1 [0 0] [13 4]] (REQUEST)
D 0.013084267 _22_ MAC  COL 0 AODV 106 [0 ffffffff 1e 800] [energy 89.995862 ei 0.002 es 0.000 et 0.000 er 0.002] ------- [30:255 -1:255 29 0] [0x2 2 1 [0 0] [13 4]] (REQUEST)
D 0.013084304 _14_ MAC  COL 0 AODV 106 [0 ffffffff 1e 800] [energy 89.995863 ei 0.002 es 0.000 et 0.000 er 0.002] ------- [30:255 -1:255 29 0] [0x2 2 1 [0 0] [13 4]] (REQUEST)
D 0.013084308 _51_ MAC  COL 0 AODV 106 [0 ffffffff 1e 800] [energy 89.995862 ei 0.002 es 0.000 et 0.000 er 0.002] ------- [30:255 -1:255 29 0] [0x2 2 1 [0 0] [13 4]] (REQUEST)
D 0.013084309 _1_ MAC  COL 0 AODV 106 [0 ffffffff 1e 800] [energy 89.995863 ei 0.002 es 0.000 et 0.000 er 0.002] ------- [30:255 -1:255 29 0] [0x2 2 1 [0 0] [13 4]] (REQUEST)