D 0.004239507 _7_ MAC  COL 0 ARP 86 [0 ffffffff 0 806] [energy 89.998279 ei 0.001 es 0.000 et 0.000 er 0.001] ------- [REQUEST 0/0 0/13]
D 0.004239512 _1_ MAC  COL 0 ARP 86 [0 ffffffff 0 806] [energy 89.998279 ei 0.001 es 0.000 et 0.000 er 0.001] ------- [REQUEST 0/0 0/13]
D 0.004239588 _36_ MAC  COL 0 ARP 86 [0 ffffffff 0 806] [energy 89.997431 ei 0.001 es 0.000 et 0.001 er 0.001] ------- [REQUEST 0/0 0/13]
D 0.004239639 _33_ MAC  COL 0 ARP 86 [0 ffffffff 0 806] [energy 89.998279 ei 0.001 es 0.000 et 0.000 er 0.001] ------- [REQUEST 0/0 0/13]
D 0.004239686 _17_ MAC  COL 0 ARP 86 [0 ffffffff 0 806] [energy 89.998278 ei 0.001 es 0.000 et 0.000 er 0.001] ------- [REQUEST 0/0 0/13]
D 0.004239782 _46_ MAC  COL 0 ARP 86 [0 ffffffff 0 806] [energy 89.998279 ei 0.001 es 0.000 et 0.000 er 0.001] ------- [REQUEST 0/0 0/13]
D 0.004239889 _38_ MAC  COL 0 ARP 86 [0 ffffffff 0 806] [energy 89.998278 ei 0.001 es 0.000 et 0.000 er 0.001] ------- [REQUEST 0/0 0/13]
D 0.004239894 _43_ MAC  COL 0 ARP 86 [0 ffffffff 0 806] [energy 89.998278 ei 0.001 es 0.000 et 0.000 er 0.001] ------- [REQUEST 0/0 0/13]
D 0.004240139 _47_ MAC  COL 0 ARP 86 [0 ffffffff 0 806] [energy 89.998278 ei 0.001 es 0.000 et 0.000 er 0.001] ------- [REQUEST 0/0 0/13]
D 0.004240186 _19_ MAC  COL 0 ARP 86 [0 ffffffff 0 806] [energy 89.998278 ei 0.001 es 0.000 et 0.000 er 0.001] ------- [REQUEST 0/0 0/13]
D 0.005087324 _36_ MAC  COL 0 AODV 106 [0 ffffffff 20 800] [energy 89.997431 ei 0.001 es 0.000 et 0.001 er 0.001] ------- [32:255 -1:255 29 0] [0x2 2 1 [0 0] [13 4]] (REQUEST)
D 0.005087426 _1_ MAC  COL 0 AODV 106 [0 ffffffff 20 800] [energy 89.998279 ei 0.001 es 0.000 et 0.000 er 0.001] ------- [32:255 -1:255 29 0] [0x2 2 1 [0 0] [13 4]] (REQUEST)
D 0.005087440 _46_ MAC  COL 0 AODV 106 [0 ffffffff 20 800] [energy 89.998279 ei 0.001 es 0.000 et 0.000 er 0.001] ------- [32:255 -1:255 29 0] [0x2 2 1 [0 0] [13 4]] (REQUEST)
D 0.005087507 _7_ MAC  COL 0 AODV 106 [0 ffffffff 20 800] [energy 89.998279 ei 0.001 es 0.000 et 0.000 er 0.001] ------- [32:255 -1:255 29 0] [0x2 2 1 [0 0] [13 4]] (REQUEST)
D 0.005087560 _2_ MAC  COL 0 AODV 106 [0 ffffffff 20 800] [energy 89.998278 ei 0.001 es 0.000 et 0.000 er 0.001] ------- [32:255 -1:255 29 0] [0x2 2 1 [0 0] [13 4]] (REQUEST)
D 0.005087596 _17_ MAC  COL 0 AODV 106 [0 ffffffff 20 800] [energy 89.998278 ei 0.001 es 0.000 et 0.000 er 0.001] ------- [32:255 -1:255 29 0] [0x2 2 1 [0 0] [13 4]] (REQUEST)
D 0.005087639 _33_ MAC  COL 0 AODV 106 [0 ffffffff 20 800] [energy 89.998279 ei 0.001 es 0.000 et 0.000 er 0.001] ------- [32:255 -1:255 29 0] [0x2 2 1 [0 0] [13 4]] (REQUEST)
D 0.005542036 _5_ MAC  COL 0 AODV 106 [0 ffffffff d 800] [energy 89.996988 ei 0.001 es 0.000 et 0.001 er 0.001] ------- [13:255 -1:255 30 0] [0x2 1 4 [5 0] [13 10]] (REQUEST)
D 0.005542055 _33_ MAC  COL 0 AODV 106 [0 ffffffff d 800] [energy 89.997676 ei 0.001 es 0.000 et 0.000 er 0.001] ------- [13:255 -1:255 30 0] [0x2 1 4 [5 0] [13 10]] (REQUEST)
D 0.005542116 _45_ MAC  COL 0 AODV 106 [0 ffffffff d 800] [energy 89.997676 ei 0.001 es 0.000 et 0.000 er 0.001] ------- [13:255 -1:255 30 0] [0x2 1 4 [5 0] [13 10]] (REQUEST)
D 0.005542126 _34_ MAC  COL 0 AODV 106 [0 ffffffff d 800] [energy 89.997676 ei 0.001 es 0.000 et 0.000 er 0.001] ------- [13:255 -1:255 30 0] [0x2 1 4 [5 0] [13 10]] (REQUEST)
D 0.005542138 _0_ MAC  COL 0 AODV 106 [0 ffffffff d 800] [energy 89.996988 ei 0.001 es 0.000 et 0.001 er 0.001] ------- [13:255 -1:255 30 0] [0x2 1 4 [5 0] [13 10]] (REQUEST)
D 0.005542228 _1_ MAC  COL 0 AODV 106 [0 ffffffff d 800] [energy 89.997676 ei 0.001 es 0.000 et 0.000 er 0.001] ------- [13:255 -1:255 30 0] [0x2 1 4 [5 0] [13 10]] (REQUEST)
D 0.005542229 _8_ MAC  COL 0 AODV 106 [0 ffffffff d 800] [energy 89.997676 ei 0.001 es 0.000 et 0.000 er 0.001] ------- [13:255 -1:255 30 0] [0x2 1 4 [5 0] [13 10]] (REQUEST)
D 0.005542294 _17_ MAC  COL 0 AODV 106 [0 ffffffff d 800] [energy 89.997675 ei 0.001 es 0.000 et 0.000 er 0.001] ------- [13:255 -1:255 30 0] [0x2 1 4 [5 0] [13 10]] (REQUEST)
D 0.005542362 _36_ MAC  COL 0 AODV 106 [0 ffffffff d 800] [energy 89.996828 ei 0.001 es 0.000 et 0.001 er 0.001] ------- [13:255 -1:255 30 0] [0x2 1 4 [5 0] [13 10]] (REQUEST)
D 0.005542366 _9_ MAC  COL 0 AODV 106 [0 ffffffff d 800] [energy 89.997676 ei 0.001 es 0.000 et 0.000 er 0.001] ------- [13:255 -1:255 30 0] [0x2 1 4 [5 0] [13 10]] (REQUEST)
D 0.005542462 _2_ MAC  COL 0 AODV 106 [0 ffffffff d 800] [energy 89.997675 ei 0.001 es 0.000 et 0.000 er 0.001] ------- [13:255 -1:255 30 0] [0x2 1 4 [5 0] [13 10]] (REQUEST)
D 0.005542466 _46_ MAC  COL 0 AODV 106 [0 ffffffff d 800] [energy 89.997675 ei 0.001 es 0.000 et 0.000 er 0.001] ------- [13:255 -1:255 30 0] [0x2 1 4 [5 0] [13 10]] (REQUEST)
D 0.005542468 _42_ MAC  COL 0 AODV 106 [0 ffffffff d 800] [energy 89.997676 ei 0.001 es 0.000 et 0.000 er 0.001] ------- [13:255 -1:255 30 0] [0x2 1 4 [5 0] [13 10]] (REQUEST)
D 0.005542475 _30_ MAC  COL 0 AODV 106 [0 ffffffff d 800] [energy 89.997676 ei 0.001 es 0.000 et 0.000 er 0.001] ------- [13:255 -1:255 30 0] [0x2 1 4 [5 0] [13 10]] (REQUEST)
D 0.005542511 _53_ MAC  COL 0 AODV 106 [0 ffffffff d 800] [energy 89.996828 ei 0.001 es 0.000 et 0.001 er 0.001] ------- [13:255 -1:255 30 0] [0x2 1 4 [5 0] [13 10]] (REQUEST)
D 0.005542535 _24_ MAC  COL 0 AODV 106 [0 ffffffff 19 800] [energy 89.997675 ei 0.001 es 0.000 et 0.000 er 0.001] ------- [25:255 -1:255 29 0] [0x2 2 1 [5 0] [53 4]] (REQUEST)
D 0.005542622 _20_ MAC  COL 0 AODV 106 [0 ffffffff 19 800] [energy 89.997675 ei 0.001 es 0.000 et 0.000 er 0.001] ------- [25:255 -1:255 29 0] [0x2 2 1 [5 0] [53 4]] (REQUEST)
D 0.005542631 _10_ MAC  COL 0 AODV 106 [0 ffffffff 19 800] [energy 89.997675 ei 0.001 es 0.000 et 0.000 er 0.001] ------- [25:255 -1:255 29 0] [0x2 2 1 [5 0] [53 4]] (REQUEST)
D 0.005542659 _29_ MAC  COL 0 AODV 106 [0 ffffffff d 800] [energy 89.997676 ei 0.001 es 0.000 et 0.000 er 0.001] ------- [13:255 -1:255 30 0] [0x2 1 4 [5 0] [13 10]] (REQUEST)
D 0.005542673 _40_ MAC  COL 0 AODV 106 [0 ffffffff 19 800] [energy 89.997675 ei 0.001 es 0.000 et 0.000 er 0.001] ------- [25:255 -1:255 29 0] [0x2 2 1 [5 0] [53 4]] (REQUEST)
D 0.005542732 _26_ MAC  COL 0 AODV 106 [0 ffffffff 19 800] [energy 89.997675 ei 0.001 es 0.000 et 0.000 er 0.001] ------- [25:255 -1:255 29 0] [0x2 2 1 [5 0] [53 4]] (REQUEST)
D 0.005542735 _4_ MAC  COL 0 AODV 106 [0 ffffffff d 800] [energy 89.997675 ei 0.001 es 0.000 et 0.000 er 0.001] ------- [13:255 -1:255 30 0] [0x2 1 4 [5 0] [13 10]] (REQUEST)
D 0.005542740 _15_ MAC  COL 0 AODV 106 [0 ffffffff d 800] [energy 89.997675 ei 0.001 es 0.000 et 0.000 er 0.001] ------- [13:255 -1:255 30 0] [0x2 1 4 [5 0] [13 10]] (REQUEST)
D 0.005542748 _32_ MAC  COL 0 AODV 106 [0 ffffffff d 800] [energy 89.996827 ei 0.001 es 0.000 et 0.001 er 0.001] ------- [13:255 -1:255 30 0] [0x2 1 4 [5 0] [13 10]] (REQUEST)
D 0.006390036 _5_ MAC  COL 0 AODV 106 [0 ffffffff 19 800] [energy 89.996988 ei 0.001 es 0.000 et 0.001 er 0.001] ------- [25:255 -1:255 29 0] [0x2 2 1 [5 0] [53 4]] (REQUEST)
D 0.006390055 _33_ MAC  COL 0 AODV 106 [0 ffffffff 19 800] [energy 89.997676 ei 0.001 es 0.000 et 0.000 er 0.001] ------- [25:255 -1:255 29 0] [0x2 2 1 [5 0] [53 4]] (REQUEST)
D 0.006390116 _45_ MAC  COL 0 AODV 106 [0 ffffffff 19 800] [energy 89.997676 ei 0.001 es 0.000 et 0.000 er 0.001] ------- [25:255 -1:255 29 0] [0x2 2 1 [5 0] [53 4]] (REQUEST)
D 0.006390126 _34_ MAC  COL 0 AODV 106 [0 ffffffff 19 800] [energy 89.997676 ei 0.001 es 0.000 et 0.000 er 0.001] ------- [25:255 -1:255 29 0] [0x2 2 1 [5 0] [53 4]] (REQUEST)
D 0.006390138 _0_ MAC  COL 0 AODV 106 [0 ffffffff 19 800] [energy 89.996988 ei 0.001 es 0.000 et 0.001 er 0.001] ------- [25:255 -1:255 29 0] [0x2 2 1 [5 0] [53 4]] (REQUEST)
D 0.006390228 _1_ MAC  COL 0 AODV 106 [0 ffffffff 19 800] [energy 89.997676 ei 0.001 es 0.000 et 0.000 er 0.001] ------- [25:255 -1:255 29 0] [0x2 2 1 [5 0] [53 4]] (REQUEST)
D 0.006390229 _8_ MAC  COL 0 AODV 106 [0 ffffffff 19 800] [energy 89.997676 ei 0.001 es 0.000 et 0.000 er 0.001] ------- [25:255 -1:255 29 0] [0x2 2 1 [5 0] [53 4]] (REQUEST)
D 0.006390294 _17_ MAC  COL 0 AODV 106 [0 ffffffff 19 800] [energy 89.997675 ei 0.001 es 0.000 et 0.000 er 0.001] ------- [25:255 -1:255 29 0] [0x2 2 1 [5 0] [53 4]] (REQUEST)
D 0.006390362 _36_ MAC  COL 0 AODV 106 [0 ffffffff 19 800] [energy 89.996828 ei 0.001 es 0.000 et 0.001 er 0.001] ------- [25:255 -1:255 29 0] [0x2 2 1 [5 0] [53 4]] (REQUEST)
D 0.006390366 _9_ MAC  COL 0 AODV 106 [0 ffffffff 19 800] [energy 89.997676 ei 0.001 es 0.000 et 0.000 er 0.001] ------- [25:255 -1:255 29 0] [0x2 2 1 [5 0] [53 4]] (REQUEST)
D 0.006390370 _27_ MAC  COL 0 AODV 106 [0 ffffffff 19 800] [energy 89.997675 ei 0.001 es 0.000 et 0.000 er 0.001] ------- [25:255 -1:255 29 0] [0x2 2 1 [5 0] [53 4]] (REQUEST)
D 0.006390462 _2_ MAC  COL 0 AODV 106 [0 ffffffff 19 800] [energy 89.997675 ei 0.001 es 0.000 et 0.000 er 0.001] ------- [25:255 -1:255 29 0] [0x2 2 1 [5 0] [53 4]] (REQUEST)
D 0.006390466 _46_ MAC  COL 0 AODV 106 [0 ffffffff 19 800] [energy 89.997675 ei 0.001 es 0.000 et 0.000 er 0.001] ------- [25:255 -1:255 29 0] [0x2 2 1 [5 0] [53 4]] (REQUEST)
D 0.006390468 _42_ MAC  COL 0 AODV 106 [0 ffffffff 19 800] [energy 89.997676 ei 0.001 es 0.000 et 0.000 er 0.001] ------- [25:255 -1:255 29 0] [0x2 2 1 [5 0] [53 4]] (REQUEST)
D 0.006390475 _30_ MAC  COL 0 AODV 106 [0 ffffffff 19 800] [energy 89.997676 ei 0.001 es 0.000 et 0.000 er 0.001] ------- [25:255 -1:255 29 0] [0x2 2 1 [5 0] [53 4]] (REQUEST)
D 0.006390511 _53_ MAC  COL 0 AODV 106 [0 ffffffff 19 800] [energy 89.996828 ei 0.001 es 0.000 et 0.001 er 0.001] ------- [25:255 -1:255 29 0] [0x2 2 1 [5 0] [53 4]] (REQUEST)
D 0.006390609 _35_ MAC  COL 0 AODV 106 [0 ffffffff 19 800] [energy 89.997675 ei 0.001 es 0.000 et 0.000 er 0.001] ------- [25:255 -1:255 29 0] [0x2 2 1 [5 0] [53 4]] (REQUEST)
D 0.006390617 _28_ MAC  COL 0 AODV 106 [0 ffffffff 19 800] [energy 89.997675 ei 0.001 es 0.000 et 0.000 er 0.001] ------- [25:255 -1:255 29 0] [0x2 2 1 [5 0] [53 4]] (REQUEST)
D 0.006845095 _5_ MAC  COL 0 RTS 44 [52e 5 35 0] [energy 89.996385 ei 0.002 es 0.000 et 0.001 er 0.001] 
D 0.007692576 _9_ MAC  COL 0 AODV 106 [0 ffffffff 2a 800] [energy 89.997074 ei 0.002 es 0.000 et 0.000 er 0.001] ------- [42:255 -1:255 29 0] [0x2 2 1 [5 0] [53 4]] (REQUEST)
D 0.007692766 _7_ MAC  COL 0 AODV 106 [0 ffffffff 2a 800] [energy 89.997073 ei 0.002 es 0.000 et 0.000 er 0.001] ------- [42:255 -1:255 29 0] [0x2 2 1 [5 0] [53 4]] (REQUEST)
D 0.007692781 _8_ MAC  COL 0 AODV 106 [0 ffffffff 2a 800] [energy 89.997073 ei 0.002 es 0.000 et 0.000 er 0.001] ------- [42:255 -1:255 29 0] [0x2 2 1 [5 0] [53 4]] (REQUEST)
D 0.007692801 _30_ MAC  COL 0 AODV 106 [0 ffffffff 2a 800] [energy 89.997073 ei 0.002 es 0.000 et 0.000 er 0.001] ------- [42:255 -1:255 29 0] [0x2 2 1 [5 0] [53 4]] (REQUEST)
D 0.007692811 _34_ MAC  COL 0 AODV 106 [0 ffffffff 2a 800] [energy 89.997073 ei 0.002 es 0.000 et 0.000 er 0.001] ------- [42:255 -1:255 29 0] [0x2 2 1 [5 0] [53 4]] (REQUEST)
D 0.007692861 _0_ MAC  COL 0 AODV 106 [0 ffffffff 2a 800] [energy 89.996385 ei 0.002 es 0.000 et 0.001 er 0.001] ------- [42:255 -1:255 29 0] [0x2 2 1 [5 0] [53 4]] (REQUEST)
D 0.007692863 _13_ MAC  COL 0 AODV 106 [0 ffffffff 2a 800] [energy 89.995377 ei 0.002 es 0.000 et 0.002 er 0.001] ------- [42:255 -1:255 29 0] [0x2 2 1 [5 0] [53 4]] (REQUEST)
D 0.007692961 _45_ MAC  COL 0 AODV 106 [0 ffffffff 2a 800] [energy 89.997073 ei 0.002 es 0.000 et 0.000 er 0.001] ------- [42:255 -1:255 29 0] [0x2 2 1 [5 0] [53 4]] (REQUEST)
D 0.007692965 _5_ MAC  COL 0 AODV 106 [0 ffffffff 2a 800] [energy 89.996385 ei 0.002 es 0.000 et 0.001 er 0.001] ------- [42:255 -1:255 29 0] [0x2 2 1 [5 0] [53 4]] (REQUEST)
D 0.007693076 _11_ MAC  COL 0 AODV 106 [0 ffffffff 2a 800] [energy 89.997073 ei 0.002 es 0.000 et 0.000 er 0.001] ------- [42:255 -1:255 29 0] [0x2 2 1 [5 0] [53 4]] (REQUEST)
D 0.007693086 _25_ MAC  COL 0 AODV 106 [0 ffffffff 2a 800] [energy 89.996225 ei 0.002 es 0.000 et 0.001 er 0.001] ------- [42:255 -1:255 29 0] [0x2 2 1 [5 0] [53 4]] (REQUEST)
D 0.007693117 _39_ MAC  COL 0 AODV 106 [0 ffffffff 2a 800] [energy 89.997073 ei 0.002 es 0.000 et 0.000 er 0.001] ------- [42:255 -1:255 29 0] [0x2 2 1 [5 0] [53 4]] (REQUEST)
D 0.007693206 _33_ MAC  COL 0 AODV 106 [0 ffffffff 2a 800] [energy 89.997072 ei 0.002 es 0.000 et 0.000 er 0.001] ------- [42:255 -1:255 29 0] [0x2 2 1 [5 0] [53 4]] (REQUEST)
D 0.007693217 _14_ MAC  COL 0 AODV 106 [0 ffffffff 2a 800] [energy 89.997073 ei 0.002 es 0.000 et 0.000 er 0.001] ------- [42:255 -1:255 29 0] [0x2 2 1 [5 0] [53 4]] (REQUEST)
D 0.007693228 _23_ MAC  COL 0 AODV 106 [0 ffffffff 2a 800] [energy 89.997073 ei 0.002 es 0.000 et 0.000 er 0.001] ------- [42:255 -1:255 29 0] [0x2 2 1 [5 0] [53 4]] (REQUEST)
D 0.007693258 _1_ MAC  COL 0 AODV 106 [0 ffffffff 2a 800] [energy 89.997072 ei 0.002 es 0.000 et 0.000 er 0.001] ------- [42:255 -1:255 29 0] [0x2 2 1 [5 0] [53 4]] (REQUEST)
D 0.007693262 _36_ MAC  COL 0 AODV 106 [0 ffffffff 2a 800] [energy 89.996224 ei 0.002 es 0.000 et 0.001 er 0.001] ------- [42:255 -1:255 29 0] [0x2 2 1 [5 0] [53 4]] (REQUEST)
D 0.008127198 _25_ MAC  COL 0 AODV 106 [0 ffffffff 8 800] [energy 89.995642 ei 0.002 es 0.000 et 0.001 er 0.001] ------- [8:255 -1:255 29 0] [0x2 2 1 [5 0] [53 4]] (REQUEST)
D 0.008127205 _5_ MAC  COL 0 AODV 106 [0 ffffffff 8 800] [energy 89.995802 ei 0.002 es 0.000 et 0.001 er 0.001] ------- [8:255 -1:255 29 0] [0x2 2 1 [5 0] [53 4]] (REQUEST)
D 0.008127312 _0_ MAC  COL 0 AODV 106 [0 ffffffff 8 800] [energy 89.995803 ei 0.002 es 0.000 et 0.001 er 0.001] ------- [8:255 -1:255 29 0] [0x2 2 1 [5 0] [53 4]] (REQUEST)
D 0.008127314 _45_ MAC  COL 0 AODV 106 [0 ffffffff 8 800] [energy 89.996490 ei 0.002 es 0.000 et 0.000 er 0.001] ------- [8:255 -1:255 29 0] [0x2 2 1 [5 0] [53 4]] (REQUEST)
D 0.008127400 _1_ MAC  COL 0 AODV 106 [0 ffffffff 8 800] [energy 89.996490 ei 0.002 es 0.000 et 0.000 er 0.001] ------- [8:255 -1:255 29 0] [0x2 2 1 [5 0] [53 4]] (REQUEST)
D 0.008127462 _14_ MAC  COL 0 AODV 106 [0 ffffffff 8 800] [energy 89.996490 ei 0.002 es 0.000 et 0.000 er 0.001] ------- [8:255 -1:255 29 0] [0x2 2 1 [5 0] [53 4]] (REQUEST)
D 0.008127504 _19_ MAC  COL 0 AODV 106 [0 ffffffff 8 800] [energy 89.996490 ei 0.002 es 0.000 et 0.000 er 0.001] ------- [8:255 -1:255 29 0] [0x2 2 1 [5 0] [53 4]] (REQUEST)
D 0.008127510 _47_ MAC  COL 0 AODV 106 [0 ffffffff 8 800] [energy 89.996490 ei 0.002 es 0.000 et 0.000 er 0.001] ------- [8:255 -1:255 29 0] [0x2 2 1 [5 0] [53 4]] (REQUEST)
D 0.008127519 _17_ MAC  COL 0 AODV 106 [0 ffffffff 8 800] [energy 89.996489 ei 0.002 es 0.000 et 0.000 er 0.001] ------- [8:255 -1:255 29 0] [0x2 2 1 [5 0] [53 4]] (REQUEST)
D 0.008127529 _13_ MAC  COL 0 AODV 106 [0 ffffffff 8 800] [energy 89.994794 ei 0.002 es 0.000 et 0.002 er 0.001] ------- [8:255 -1:255 29 0] [0x2 2 1 [5 0] [53 4]] (REQUEST)
D 0.008127549 _39_ MAC  COL 0 AODV 106 [0 ffffffff 8 800] [energy 89.996490 ei 0.002 es 0.000 et 0.000 er 0.001] ------- [8:255 -1:255 29 0] [0x2 2 1 [5 0] [53 4]] (REQUEST)
D 0.008127556 _36_ MAC  COL 0 AODV 106 [0 ffffffff 8 800] [energy 89.995642 ei 0.002 es 0.000 et 0.001 er 0.001] ------- [8:255 -1:255 29 0] [0x2 2 1 [5 0] [53 4]] (REQUEST)
D 0.008127561 _27_ MAC  COL 0 AODV 106 [0 ffffffff b 800] [energy 89.996489 ei 0.002 es 0.000 et 0.000 er 0.001] ------- [11:255 -1:255 29 0] [0x2 2 1 [0 0] [13 4]] (REQUEST)
D 0.008127579 _3_ MAC  COL 0 AODV 106 [0 ffffffff 8 800] [energy 89.996490 ei 0.002 es 0.000 et 0.000 er 0.001] ------- [8:255 -1:255 29 0] [0x2 2 1 [5 0] [53 4]] (REQUEST)
D 0.008127588 _2_ MAC  COL 0 AODV 106 [0 ffffffff 8 800] [energy 89.996489 ei 0.002 es 0.000 et 0.000 er 0.001] ------- [8:255 -1:255 29 0] [0x2 2 1 [5 0] [53 4]] (REQUEST)
D 0.008127650 _12_ MAC  COL 0 AODV 106 [0 ffffffff 8 800] [energy 89.996490 ei 0.002 es 0.000 et 0.000 er 0.001] ------- [8:255 -1:255 29 0] [0x2 2 1 [5 0] [53 4]] (REQUEST)
D 0.008127679 _24_ MAC  COL 0 AODV 106 [0 ffffffff b 800] [energy 89.996489 ei 0.002 es 0.000 et 0.000 er 0.001] ------- [11:255 -1:255 29 0] [0x2 2 1 [0 0] [13 4]] (REQUEST)
D 0.008127688 _37_ MAC  COL 0 AODV 106 [0 ffffffff 8 800] [energy 89.996490 ei 0.002 es 0.000 et 0.000 er 0.001] ------- [8:255 -1:255 29 0] [0x2 2 1 [5 0] [53 4]] (REQUEST)
D 0.008127734 _7_ MAC  COL 0 AODV 106 [0 ffffffff 8 800] [energy 89.996490 ei 0.002 es 0.000 et 0.000 er 0.001] ------- [8:255 -1:255 29 0] [0x2 2 1 [5 0] [53 4]] (REQUEST)
D 0.008127756 _23_ MAC  COL 0 AODV 106 [0 ffffffff 8 800] [energy 89.996490 ei 0.002 es 0.000 et 0.000 er 0.001] ------- [8:255 -1:255 29 0] [0x2 2 1 [5 0] [53 4]] (REQUEST)
D 0.008127770 _51_ MAC  COL 0 AODV 106 [0 ffffffff 8 800] [energy 89.996490 ei 0.002 es 0.000 et 0.000 er 0.001] ------- [8:255 -1:255 29 0] [0x2 2 1 [5 0] [53 4]] (REQUEST)
D 0.008127803 _10_ MAC  COL 0 AODV 106 [0 ffffffff b 800] [energy 89.996489 ei 0.002 es 0.000 et 0.000 er 0.001] ------- [11:255 -1:255 29 0] [0x2 2 1 [0 0] [13 4]] (REQUEST)
D 0.008127808 _48_ MAC  COL 0 AODV 106 [0 ffffffff 8 800] [energy 89.996490 ei 0.002 es 0.000 et 0.000 er 0.001] ------- [8:255 -1:255 29 0] [0x2 2 1 [5 0] [53 4]] (REQUEST)
D 0.008127826 _28_ MAC  COL 0 AODV 106 [0 ffffffff b 800] [energy 89.996489 ei 0.002 es 0.000 et 0.000 er 0.001] ------- [11:255 -1:255 29 0] [0x2 2 1 [0 0] [13 4]] (REQUEST)
D 0.008127826 _40_ MAC  COL 0 AODV 106 [0 ffffffff b 800] [energy 89.996489 ei 0.002 es 0.000 et 0.000 er 0.001] ------- [11:255 -1:255 29 0] [0x2 2 1 [0 0] [13 4]] (REQUEST)
D 0.008127855 _26_ MAC  COL 0 AODV 106 [0 ffffffff b 800] [energy 89.996489 ei 0.002 es 0.000 et 0.000 er 0.001] ------- [11:255 -1:255 29 0] [0x2 2 1 [0 0] [13 4]] (REQUEST)
D 0.008127860 _20_ MAC  COL 0 AODV 106 [0 ffffffff b 800] [energy 89.996489 ei 0.002 es 0.000 et 0.000 er 0.001] ------- [11:255 -1:255 29 0] [0x2 2 1 [0 0] [13 4]] (REQUEST)
D 0.008127895 _35_ MAC  COL 0 AODV 106 [0 ffffffff b 800] [energy 89.996489 ei 0.002 es 0.000 et 0.000 er 0.001] ------- [11:255 -1:255 29 0] [0x2 2 1 [0 0] [13 4]] (REQUEST)
D 0.008127906 _22_ MAC  COL 0 AODV 106 [0 ffffffff b 800] [energy 89.996489 ei 0.002 es 0.000 et 0.000 er 0.001] ------- [11:255 -1:255 29 0] [0x2 2 1 [0 0] [13 4]] (REQUEST)
D 0.008975198 _25_ MAC  COL 0 AODV 106 [0 ffffffff b 800] [energy 89.995642 ei 0.002 es 0.000 et 0.001 er 0.001] ------- [11:255 -1:255 29 0] [0x2 2 1 [0 0] [13 4]] (REQUEST)
D 0.008975205 _5_ MAC  COL 0 AODV 106 [0 ffffffff b 800] [energy 89.995802 ei 0.002 es 0.000 et 0.001 er 0.001] ------- [11:255 -1:255 29 0] [0x2 2 1 [0 0] [13 4]] (REQUEST)
D 0.008975312 _0_ MAC  COL 0 AODV 106 [0 ffffffff b 800] [energy 89.995803 ei 0.002 es 0.000 et 0.001 er 0.001] ------- [11:255 -1:255 29 0] [0x2 2 1 [0 0] [13 4]] (REQUEST)
D 0.008975314 _45_ MAC  COL 0 AODV 106 [0 ffffffff b 800] [energy 89.996490 ei 0.002 es 0.000 et 0.000 er 0.001] ------- [11:255 -1:255 29 0] [0x2 2 1 [0 0] [13 4]] (REQUEST)
D 0.008975400 _1_ MAC  COL 0 AODV 106 [0 ffffffff b 800] [energy 89.996490 ei 0.002 es 0.000 et 0.000 er 0.001] ------- [11:255 -1:255 29 0] [0x2 2 1 [0 0] [13 4]] (REQUEST)
D 0.008975462 _14_ MAC  COL 0 AODV 106 [0 ffffffff b 800] [energy 89.996490 ei 0.002 es 0.000 et 0.000 er 0.001] ------- [11:255 -1:255 29 0] [0x2 2 1 [0 0] [13 4]] (REQUEST)
D 0.008975504 _19_ MAC  COL 0 AODV 106 [0 ffffffff b 800] [energy 89.996490 ei 0.002 es 0.000 et 0.000 er 0.001] ------- [11:255 -1:255 29 0] [0x2 2 1 [0 0] [13 4]] (REQUEST)
D 0.008975510 _47_ MAC  COL 0 AODV 106 [0 ffffffff b 800] [energy 89.996490 ei 0.002 es 0.000 et 0.000 er 0.001] ------- [11:255 -1:255 29 0] [0x2 2 1 [0 0] [13 4]] (REQUEST)
D 0.008975519 _17_ MAC  COL 0 AODV 106 [0 ffffffff b 800] [energy 89.996489 ei 0.002 es 0.000 et 0.000 er 0.001] ------- [11:255 -1:255 29 0] [0x2 2 1 [0 0] [13 4]] (REQUEST)
D 0.008975529 _13_ MAC  COL 0 AODV 106 [0 ffffffff b 800] [energy 89.994794 ei 0.002 es 0.000 et 0.002 er 0.001] ------- [11:255 -1:255 29 0] [0x2 2 1 [0 0] [13 4]] (REQUEST)
D 0.008975549 _39_ MAC  COL 0 AODV 106 [0 ffffffff b 800] [energy 89.996490 ei 0.002 es 0.000 et 0.000 er 0.001] ------- [11:255 -1:255 29 0] [0x2 2 1 [0 0] [13 4]] (REQUEST)
D 0.008975556 _36_ MAC  COL 0 AODV 106 [0 ffffffff b 800] [energy 89.995642 ei 0.002 es 0.000 et 0.001 er 0.001] ------- [11:255 -1:255 29 0] [0x2 2 1 [0 0] [13 4]] (REQUEST)
D 0.008975561 _27_ MAC  COL 0 AODV 106 [0 ffffffff 8 800] [energy 89.996489 ei 0.002 es 0.000 et 0.000 er 0.001] ------- [8:255 -1:255 29 0] [0x2 2 1 [5 0] [53 4]] (REQUEST)
D 0.008975579 _3_ MAC  COL 0 AODV 106 [0 ffffffff b 800] [energy 89.996490 ei 0.002 es 0.000 et 0.000 er 0.001] ------- [11:255 -1:255 29 0] [0x2 2 1 [0 0] [13 4]] (REQUEST)
D 0.008975588 _2_ MAC  COL 0 AODV 106 [0 ffffffff b 800] [energy 89.996489 ei 0.002 es 0.000 et 0.000 er 0.001] ------- [11:255 -1:255 29 0] [0x2 2 1 [0 0] [13 4]] (REQUEST)
D 0.008975650 _12_ MAC  COL 0 AODV 106 [0 ffffffff b 800] [energy 89.996490 ei 0.002 es 0.000 et 0.000 er 0.001] ------- [11:255 -1:255 29 0] [0x2 2 1 [0 0] [13 4]] (REQUEST)
D 0.008975669 _46_ MAC  COL 0 AODV 106 [0 ffffffff b 800] [energy 89.996489 ei 0.002 es 0.000 et 0.000 er 0.001] ------- [11:255 -1:255 29 0] [0x2 2 1 [0 0] [13 4]] (REQUEST)
D 0.008975688 _37_ MAC  COL 0 AODV 106 [0 ffffffff b 800] [energy 89.996490 ei 0.002 es 0.000 et 0.000 er 0.001] ------- [11:255 -1:255 29 0] [0x2 2 1 [0 0] [13 4]] (REQUEST)
D 0.008975734 _7_ MAC  COL 0 AODV 106 [0 ffffffff b 800] [energy 89.996490 ei 0.002 es 0.000 et 0.000 er 0.001] ------- [11:255 -1:255 29 0] [0x2 2 1 [0 0] [13 4]] (REQUEST)
D 0.008975756 _23_ MAC  COL 0 AODV 106 [0 ffffffff b 800] [energy 89.996490 ei 0.002 es 0.000 et 0.000 er 0.001] ------- [11:255 -1:255 29 0] [0x2 2 1 [0 0] [13 4]] (REQUEST)
D 0.008975770 _51_ MAC  COL 0 AODV 106 [0 ffffffff b 800] [energy 89.996490 ei 0.002 es 0.000 et 0.000 er 0.001] ------- [11:255 -1:255 29 0] [0x2 2 1 [0 0] [13 4]] (REQUEST)
D 0.008975793 _21_ MAC  COL 0 AODV 106 [0 ffffffff b 800] [energy 89.996490 ei 0.002 es 0.000 et 0.000 er 0.001] ------- [11:255 -1:255 29 0] [0x2 2 1 [0 0] [13 4]] (REQUEST)
D 0.008975808 _48_ MAC  COL 0 AODV 106 [0 ffffffff b 800] [energy 89.996490 ei 0.002 es 0.000 et 0.000 er 0.001] ------- [11:255 -1:255 29 0] [0x2 2 1 [0 0] [13 4]] (REQUEST)
D 0.008975809 _44_ MAC  COL 0 AODV 106 [0 ffffffff b 800] [energy 89.996490 ei 0.002 es 0.000 et 0.000 er 0.001] ------- [11:255 -1:255 29 0] [0x2 2 1 [0 0] [13 4]] (REQUEST)
D 0.008975850 _29_ MAC  COL 0 AODV 106 [0 ffffffff b 800] [energy 89.996490 ei 0.002 es 0.000 et 0.000 er 0.001] ------- [11:255 -1:255 29 0] [0x2 2 1 [0 0] [13 4]] (REQUEST)
D 0.008975903 _15_ MAC  COL 0 AODV 106 [0 ffffffff b 800] [energy 89.996489 ei 0.002 es 0.000 et 0.000 er 0.001] ------- [11:255 -1:255 29 0] [0x2 2 1 [0 0] [13 4]] (REQUEST)
D 0.010368202 _45_ MAC  COL 0 AODV 106 [0 ffffffff 9 800] [energy 89.995649 ei 0.003 es 0.000 et 0.000 er 0.001] ------- [9:255 -1:255 29 0] [0x2 2 1 [0 0] [13 4]] (REQUEST)
D 0.010368369 _13_ MAC  COL 0 AODV 106 [0 ffffffff 9 800] [energy 89.993953 ei 0.003 es 0.000 et 0.002 er 0.001] ------- [9:255 -1:255 29 0] [0x2 2 1 [0 0] [13 4]] (REQUEST)
D 0.010368426 _34_ MAC  COL 0 AODV 106 [0 ffffffff 9 800] [energy 89.995649 ei 0.003 es 0.000 et 0.000 er 0.001] ------- [9:255 -1:255 29 0] [0x2 2 1 [0 0] [13 4]] (REQUEST)
D 0.010368426 _8_ MAC  COL 0 AODV 106 [0 ffffffff 9 800] [energy 89.994801 ei 0.003 es 0.000 et 0.001 er 0.001] ------- [9:255 -1:255 29 0] [0x2 2 1 [0 0] [13 4]] (REQUEST)
D 0.010368475 _25_ MAC  COL 0 AODV 106 [0 ffffffff 9 800] [energy 89.994800 ei 0.003 es 0.000 et 0.001 er 0.001] ------- [9:255 -1:255 29 0] [0x2 2 1 [0 0] [13 4]] (REQUEST)
D 0.010368541 _36_ MAC  COL 0 AODV 106 [0 ffffffff 9 800] [energy 89.994800 ei 0.003 es 0.000 et 0.001 er 0.001] ------- [9:255 -1:255 29 0] [0x2 2 1 [0 0] [13 4]] (REQUEST)
D 0.010368568 _17_ MAC  COL 0 AODV 106 [0 ffffffff 9 800] [energy 89.995648 ei 0.003 es 0.000 et 0.000 er 0.001] ------- [9:255 -1:255 29 0] [0x2 2 1 [0 0] [13 4]] (REQUEST)
D 0.010368647 _2_ MAC  COL 0 AODV 106 [0 ffffffff 0 800] [energy 89.995648 ei 0.003 es 0.000 et 0.000 er 0.001] ------- [0:255 -1:255 29 0] [0x2 2 1 [5 0] [53 4]] (REQUEST)
D 0.010368665 _43_ MAC  COL 0 AODV 106 [0 ffffffff 0 800] [energy 89.995648 ei 0.003 es 0.000 et 0.000 er 0.001] ------- [0:255 -1:255 29 0] [0x2 2 1 [5 0] [53 4]] (REQUEST)
D 0.010368667 _14_ MAC  COL 0 AODV 106 [0 ffffffff 9 800] [energy 89.995648 ei 0.003 es 0.000 et 0.000 er 0.001] ------- [9:255 -1:255 29 0] [0x2 2 1 [0 0] [13 4]] (REQUEST)
D 0.010368679 _23_ MAC  COL 0 AODV 106 [0 ffffffff 9 800] [energy 89.995648 ei 0.003 es 0.000 et 0.000 er 0.001] ------- [9:255 -1:255 29 0] [0x2 2 1 [0 0] [13 4]] (REQUEST)
D 0.010368680 _27_ MAC  COL 0 AODV 106 [0 ffffffff 0 800] [energy 89.995647 ei 0.003 es 0.000 et 0.000 er 0.001] ------- [0:255 -1:255 29 0] [0x2 2 1 [5 0] [53 4]] (REQUEST)
D 0.010368760 _38_ MAC  COL 0 AODV 106 [0 ffffffff 0 800] [energy 89.995647 ei 0.003 es 0.000 et 0.000 er 0.001] ------- [0:255 -1:255 29 0] [0x2 2 1 [5 0] [53 4]] (REQUEST)
D 0.010368775 _39_ MAC  COL 0 AODV 106 [0 ffffffff 9 800] [energy 89.995648 ei 0.003 es 0.000 et 0.000 er 0.001] ------- [9:255 -1:255 29 0] [0x2 2 1 [0 0] [13 4]] (REQUEST)
D 0.010368777 _29_ MAC  COL 0 AODV 106 [0 ffffffff 9 800] [energy 89.995648 ei 0.003 es 0.000 et 0.000 er 0.001] ------- [9:255 -1:255 29 0] [0x2 2 1 [0 0] [13 4]] (REQUEST)
D 0.010368826 _30_ MAC  COL 0 AODV 106 [0 ffffffff 9 800] [energy 89.995649 ei 0.003 es 0.000 et 0.000 er 0.001] ------- [9:255 -1:255 29 0] [0x2 2 1 [0 0] [13 4]] (REQUEST)
D 0.010368834 _15_ MAC  COL 0 AODV 106 [0 ffffffff 9 800] [energy 89.995648 ei 0.003 es 0.000 et 0.000 er 0.001] ------- [9:255 -1:255 29 0] [0x2 2 1 [0 0] [13 4]] (REQUEST)
D 0.010368838 _24_ MAC  COL 0 AODV 106 [0 ffffffff 0 800] [energy 89.995647 ei 0.003 es 0.000 et 0.000 er 0.001] ------- [0:255 -1:255 29 0] [0x2 2 1 [5 0] [53 4]] (REQUEST)
D 0.010368858 _32_ MAC  COL 0 AODV 106 [0 ffffffff 9 800] [energy 89.994800 ei 0.003 es 0.000 et 0.001 er 0.001] ------- [9:255 -1:255 29 0] [0x2 2 1 [0 0] [13 4]] (REQUEST)
D 0.010368977 _28_ MAC  COL 0 AODV 106 [0 ffffffff 0 800] [energy 89.995647 ei 0.003 es 0.000 et 0.000 er 0.001] ------- [0:255 -1:255 29 0] [0x2 2 1 [5 0] [53 4]] (REQUEST)
D 0.010368999 _10_ MAC  COL 0 AODV 106 [0 ffffffff 0 800] [energy 89.995647 ei 0.003 es 0.000 et 0.000 er 0.001] ------- [0:255 -1:255 29 0] [0x2 2 1 [5 0] [53 4]] (REQUEST)
D 0.010369028 _20_ MAC  COL 0 AODV 106 [0 ffffffff 0 800] [energy 89.995647 ei 0.003 es 0.000 et 0.000 er 0.001] ------- [0:255 -1:255 29 0] [0x2 2 1 [5 0] [53 4]] (REQUEST)
D 0.011216202 _45_ MAC  COL 0 AODV 106 [0 ffffffff 0 800] [energy 89.995649 ei 0.003 es 0.000 et 0.000 er 0.001] ------- [0:255 -1:255 29 0] [0x2 2 1 [5 0] [53 4]] (REQUEST)
D 0.011216369 _13_ MAC  COL 0 AODV 106 [0 ffffffff 0 800] [energy 89.993953 ei 0.003 es 0.000 et 0.002 er 0.001] ------- [0:255 -1:255 29 0] [0x2 2 1 [5 0] [53 4]] (REQUEST)
D 0.011216426 _34_ MAC  COL 0 AODV 106 [0 ffffffff 0 800] [energy 89.995649 ei 0.003 es 0.000 et 0.000 er 0.001] ------- [0:255 -1:255 29 0] [0x2 2 1 [5 0] [53 4]] (REQUEST)
D 0.011216426 _8_ MAC  COL 0 AODV 106 [0 ffffffff 0 800] [energy 89.994801 ei 0.003 es 0.000 et 0.001 er 0.001] ------- [0:255 -1:255 29 0] [0x2 2 1 [5 0] [53 4]] (REQUEST)
D 0.011216475 _25_ MAC  COL 0 AODV 106 [0 ffffffff 0 800] [energy 89.994800 ei 0.003 es 0.000 et 0.001 er 0.001] ------- [0:255 -1:255 29 0] [0x2 2 1 [5 0] [53 4]] (REQUEST)
D 0.011216541 _36_ MAC  COL 0 AODV 106 [0 ffffffff 0 800] [energy 89.994800 ei 0.003 es 0.000 et 0.001 er 0.001] ------- [0:255 -1:255 29 0] [0x2 2 1 [5 0] [53 4]] (REQUEST)
D 0.011216568 _17_ MAC  COL 0 AODV 106 [0 ffffffff 0 800] [energy 89.995648 ei 0.003 es 0.000 et 0.000 er 0.001] ------- [0:255 -1:255 29 0] [0x2 2 1 [5 0] [53 4]] (REQUEST)
D 0.011216647 _2_ MAC  COL 0 AODV 106 [0 ffffffff 9 800] [energy 89.995648 ei 0.003 es 0.000 et 0.000 er 0.001] ------- [9:255 -1:255 29 0] [0x2 2 1 [0 0] [13 4]] (REQUEST)
D 0.011216665 _43_ MAC  COL 0 AODV 106 [0 ffffffff 9 800] [energy 89.995648 ei 0.003 es 0.000 et 0.000 er 0.001] ------- [9:255 -1:255 29 0] [0x2 2 1 [0 0] [13 4]] (REQUEST)
D 0.011216667 _14_ MAC  COL 0 AODV 106 [0 ffffffff 0 800] [energy 89.995648 ei 0.003 es 0.000 et 0.000 er 0.001] ------- [0:255 -1:255 29 0] [0x2 2 1 [5 0] [53 4]] (REQUEST)
D 0.011216679 _23_ MAC  COL 0 AODV 106 [0 ffffffff 0 800] [energy 89.995648 ei 0.003 es 0.000 et 0.000 er 0.001] ------- [0:255 -1:255 29 0] [0x2 2 1 [5 0] [53 4]] (REQUEST)
D 0.011216680 _27_ MAC  COL 0 AODV 106 [0 ffffffff 9 800] [energy 89.995647 ei 0.003 es 0.000 et 0.000 er 0.001] ------- [9:255 -1:255 29 0] [0x2 2 1 [0 0] [13 4]] (REQUEST)
D 0.011216722 _46_ MAC  COL 0 AODV 106 [0 ffffffff 0 800] [energy 89.995648 ei 0.003 es 0.000 et 0.000 er 0.001] ------- [0:255 -1:255 29 0] [0x2 2 1 [5 0] [53 4]] (REQUEST)
D 0.011216754 _19_ MAC  COL 0 AODV 106 [0 ffffffff 0 800] [energy 89.995648 ei 0.003 es 0.000 et 0.000 er 0.001] ------- [0:255 -1:255 29 0] [0x2 2 1 [5 0] [53 4]] (REQUEST)
D 0.011216775 _39_ MAC  COL 0 AODV 106 [0 ffffffff 0 800] [energy 89.995648 ei 0.003 es 0.000 et 0.000 er 0.001] ------- [0:255 -1:255 29 0] [0x2 2 1 [5 0] [53 4]] (REQUEST)
D 0.011216777 _29_ MAC  COL 0 AODV 106 [0 ffffffff 0 800] [energy 89.995648 ei 0.003 es 0.000 et 0.000 er 0.001] ------- [0:255 -1:255 29 0] [0x2 2 1 [5 0] [53 4]] (REQUEST)
D 0.011216809 _3_ MAC  COL 0 AODV 106 [0 ffffffff 0 800] [energy 89.995648 ei 0.003 es 0.000 et 0.000 er 0.001] ------- [0:255 -1:255 29 0] [0x2 2 1 [5 0] [53 4]] (REQUEST)
D 0.011216826 _47_ MAC  COL 0 AODV 106 [0 ffffffff 0 800] [energy 89.995648 ei 0.003 es 0.000 et 0.000 er 0.001] ------- [0:255 -1:255 29 0] [0x2 2 1 [5 0] [53 4]] (REQUEST)
D 0.011216826 _30_ MAC  COL 0 AODV 106 [0 ffffffff 0 800] [energy 89.995649 ei 0.003 es 0.000 et 0.000 er 0.001] ------- [0:255 -1:255 29 0] [0x2 2 1 [5 0] [53 4]] (REQUEST)
D 0.011216834 _15_ MAC  COL 0 AODV 106 [0 ffffffff 0 800] [energy 89.995648 ei 0.003 es 0.000 et 0.000 er 0.001] ------- [0:255 -1:255 29 0] [0x2 2 1 [5 0] [53 4]] (REQUEST)