D 0.105830435 _14_ MAC  COL 0 AODV 106 [0 ffffffff 10 800] [energy 89.897199 ei 0.101 es 0.000 et 0.001 er 0.001] ------- [16:255 -1:255 28 0] [0x2 3 1 [0 0] [4 4]] (REQUEST)
D 0.105830809 _43_ MAC  COL 0 AODV 106 [0 ffffffff 10 800] [energy 89.898047 ei 0.101 es 0.000 et 0.000 er 0.001] ------- [16:255 -1:255 28 0] [0x2 3 1 [0 0] [4 4]] (REQUEST)
D 0.105830811 _17_ MAC  COL 0 AODV 106 [0 ffffffff a 800] [energy 89.897199 ei 0.101 es 0.000 et 0.001 er 0.001] ------- [10:255 -1:255 29 0] [0x2 2 1 [0 0] [4 4]] (REQUEST)
D 0.105830811 _21_ MAC  COL 0 AODV 106 [0 ffffffff a 800] [energy 89.898047 ei 0.101 es 0.000 et 0.000 er 0.001] ------- [10:255 -1:255 29 0] [0x2 2 1 [0 0] [4 4]] (REQUEST)
D 0.105830812 _40_ MAC  COL 0 AODV 106 [0 ffffffff a 800] [energy 89.898047 ei 0.101 es 0.000 et 0.000 er 0.001] ------- [10:255 -1:255 29 0] [0x2 2 1 [0 0] [4 4]] (REQUEST)
D 0.105830816 _37_ MAC  COL 0 AODV 106 [0 ffffffff a 800] [energy 89.898047 ei 0.101 es 0.000 et 0.000 er 0.001] ------- [10:255 -1:255 29 0] [0x2 2 1 [0 0] [4 4]] (REQUEST)
D 0.105830816 _42_ MAC  COL 0 AODV 106 [0 ffffffff a 800] [energy 89.898047 ei 0.101 es 0.000 et 0.000 er 0.001] ------- [10:255 -1:255 29 0] [0x2 2 1 [0 0] [4 4]] (REQUEST)
D 0.105830825 _12_ MAC  COL 0 AODV 106 [0 ffffffff 10 800] [energy 89.898047 ei 0.101 es 0.000 et 0.000 er 0.001] ------- [16:255 -1:255 28 0] [0x2 3 1 [0 0] [4 4]] (REQUEST)
D 0.105830885 _7_ MAC  COL 0 AODV 106 [0 ffffffff 10 800] [energy 89.898047 ei 0.101 es 0.000 et 0.000 er 0.001] ------- [16:255 -1:255 28 0] [0x2 3 1 [0 0] [4 4]] (REQUEST)
D 0.105831062 _35_ MAC  COL 0 AODV 106 [0 ffffffff 10 800] [energy 89.898047 ei 0.101 es 0.000 et 0.000 er 0.001] ------- [16:255 -1:255 28 0] [0x2 3 1 [0 0] [4 4]] (REQUEST)
D 0.105831145 _25_ MAC  COL 0 AODV 106 [0 ffffffff 10 800] [energy 89.898047 ei 0.101 es 0.000 et 0.000 er 0.001] ------- [16:255 -1:255 28 0] [0x2 3 1 [0 0] [4 4]] (REQUEST)
D 0.105831158 _13_ MAC  COL 0 AODV 106 [0 ffffffff 10 800] [energy 89.898047 ei 0.101 es 0.000 et 0.000 er 0.001] ------- [16:255 -1:255 28 0] [0x2 3 1 [0 0] [4 4]] (REQUEST)
D 0.105831212 _26_ MAC  COL 0 AODV 106 [0 ffffffff 10 800] [energy 89.898047 ei 0.101 es 0.000 et 0.000 er 0.001] ------- [16:255 -1:255 28 0] [0x2 3 1 [0 0] [4 4]] (REQUEST)
D 0.105831220 _18_ MAC  COL 0 AODV 106 [0 ffffffff 10 800] [energy 89.898047 ei 0.101 es 0.000 et 0.000 er 0.001] ------- [16:255 -1:255 28 0] [0x2 3 1 [0 0] [4 4]] (REQUEST)
D 0.105831250 _38_ MAC  COL 0 AODV 106 [0 ffffffff 10 800] [energy 89.898047 ei 0.101 es 0.000 et 0.000 er 0.001] ------- [16:255 -1:255 28 0] [0x2 3 1 [0 0] [4 4]] (REQUEST)
D 0.105831366 _31_ MAC  COL 0 AODV 106 [0 ffffffff 10 800] [energy 89.898047 ei 0.101 es 0.000 et 0.000 er 0.001] ------- [16:255 -1:255 28 0] [0x2 3 1 [0 0] [4 4]] (REQUEST)
D 0.106678435 _14_ MAC  COL 0 AODV 106 [0 ffffffff a 800] [energy 89.897199 ei 0.101 es 0.000 et 0.001 er 0.001] ------- [10:255 -1:255 29 0] [0x2 2 1 [0 0] [4 4]] (REQUEST)
D 0.106678809 _43_ MAC  COL 0 AODV 106 [0 ffffffff a 800] [energy 89.898047 ei 0.101 es 0.000 et 0.000 er 0.001] ------- [10:255 -1:255 29 0] [0x2 2 1 [0 0] [4 4]] (REQUEST)
D 0.106678811 _17_ MAC  COL 0 AODV 106 [0 ffffffff 10 800] [energy 89.897199 ei 0.101 es 0.000 et 0.001 er 0.001] ------- [16:255 -1:255 28 0] [0x2 3 1 [0 0] [4 4]] (REQUEST)
D 0.106678811 _21_ MAC  COL 0 AODV 106 [0 ffffffff 10 800] [energy 89.898047 ei 0.101 es 0.000 et 0.000 er 0.001] ------- [16:255 -1:255 28 0] [0x2 3 1 [0 0] [4 4]] (REQUEST)
D 0.106678812 _40_ MAC  COL 0 AODV 106 [0 ffffffff 10 800] [energy 89.898047 ei 0.101 es 0.000 et 0.000 er 0.001] ------- [16:255 -1:255 28 0] [0x2 3 1 [0 0] [4 4]] (REQUEST)
D 0.106678816 _37_ MAC  COL 0 AODV 106 [0 ffffffff 10 800] [energy 89.898047 ei 0.101 es 0.000 et 0.000 er 0.001] ------- [16:255 -1:255 28 0] [0x2 3 1 [0 0] [4 4]] (REQUEST)
D 0.106678816 _42_ MAC  COL 0 AODV 106 [0 ffffffff 10 800] [energy 89.898047 ei 0.101 es 0.000 et 0.000 er 0.001] ------- [16:255 -1:255 28 0] [0x2 3 1 [0 0] [4 4]] (REQUEST)
D 0.106678825 _12_ MAC  COL 0 AODV 106 [0 ffffffff a 800] [energy 89.898047 ei 0.101 es 0.000 et 0.000 er 0.001] ------- [10:255 -1:255 29 0] [0x2 2 1 [0 0] [4 4]] (REQUEST)
D 0.106678885 _7_ MAC  COL 0 AODV 106 [0 ffffffff a 800] [energy 89.898047 ei 0.101 es 0.000 et 0.000 er 0.001] ------- [10:255 -1:255 29 0] [0x2 2 1 [0 0] [4 4]] (REQUEST)
D 0.107213199 _4_ MAC  COL 0 AODV 106 [0 ffffffff 9 800] [energy 89.895476 ei 0.101 es 0.000 et 0.002 er 0.001] ------- [9:255 -1:255 29 0] [0x2 2 1 [0 0] [4 4]] (REQUEST)
D 0.107213273 _39_ MAC  COL 0 AODV 106 [0 ffffffff 9 800] [energy 89.897364 ei 0.101 es 0.000 et 0.000 er 0.001] ------- [9:255 -1:255 29 0] [0x2 2 1 [0 0] [4 4]] (REQUEST)
D 0.107213382 _20_ MAC  COL 0 AODV 106 [0 ffffffff 9 800] [energy 89.897364 ei 0.101 es 0.000 et 0.000 er 0.001] ------- [9:255 -1:255 29 0] [0x2 2 1 [0 0] [4 4]] (REQUEST)
D 0.107213415 _5_ MAC  COL 0 AODV 106 [0 ffffffff 9 800] [energy 89.897364 ei 0.101 es 0.000 et 0.000 er 0.001] ------- [9:255 -1:255 29 0] [0x2 2 1 [0 0] [4 4]] (REQUEST)
D 0.107213716 _21_ MAC  COL 0 AODV 106 [0 ffffffff 9 800] [energy 89.897364 ei 0.101 es 0.000 et 0.000 er 0.001] ------- [9:255 -1:255 29 0] [0x2 2 1 [0 0] [4 4]] (REQUEST)
D 0.107213905 _14_ MAC  COL 0 AODV 106 [0 ffffffff 9 800] [energy 89.896516 ei 0.101 es 0.000 et 0.001 er 0.001] ------- [9:255 -1:255 29 0] [0x2 2 1 [0 0] [4 4]] (REQUEST)
D 0.107213980 _2_ MAC  COL 0 AODV 106 [0 ffffffff 9 800] [energy 89.897364 ei 0.101 es 0.000 et 0.000 er 0.001] ------- [9:255 -1:255 29 0] [0x2 2 1 [0 0] [4 4]] (REQUEST)
D 0.107214007 _0_ MAC  COL 0 AODV 106 [0 ffffffff 9 800] [energy 89.896068 ei 0.101 es 0.000 et 0.002 er 0.001] ------- [9:255 -1:255 29 0] [0x2 2 1 [0 0] [4 4]] (REQUEST)
D 0.107214103 _16_ MAC  COL 0 AODV 106 [0 ffffffff 9 800] [energy 89.896516 ei 0.101 es 0.000 et 0.001 er 0.001] ------- [9:255 -1:255 29 0] [0x2 2 1 [0 0] [4 4]] (REQUEST)
D 0.107214237 _3_ MAC  COL 0 AODV 106 [0 ffffffff 9 800] [energy 89.897364 ei 0.101 es 0.000 et 0.000 er 0.001] ------- [9:255 -1:255 29 0] [0x2 2 1 [0 0] [4 4]] (REQUEST)
D 0.107214243 _43_ MAC  COL 0 AODV 106 [0 ffffffff 9 800] [energy 89.897364 ei 0.101 es 0.000 et 0.000 er 0.001] ------- [9:255 -1:255 29 0] [0x2 2 1 [0 0] [4 4]] (REQUEST)
D 0.108061199 _4_ MAC  COL 0 AODV 106 [0 ffffffff 13 800] [energy 89.895476 ei 0.101 es 0.000 et 0.002 er 0.001] ------- [19:255 -1:255 29 0] [0x2 2 1 [0 0] [4 4]] (REQUEST)
D 0.108061273 _39_ MAC  COL 0 AODV 106 [0 ffffffff 13 800] [energy 89.897364 ei 0.101 es 0.000 et 0.000 er 0.001] ------- [19:255 -1:255 29 0] [0x2 2 1 [0 0] [4 4]] (REQUEST)
D 0.108061382 _20_ MAC  COL 0 AODV 106 [0 ffffffff 13 800] [energy 89.897364 ei 0.101 es 0.000 et 0.000 er 0.001] ------- [19:255 -1:255 29 0] [0x2 2 1 [0 0] [4 4]] (REQUEST)
D 0.108061415 _5_ MAC  COL 0 AODV 106 [0 ffffffff 13 800] [energy 89.897364 ei 0.101 es 0.000 et 0.000 er 0.001] ------- [19:255 -1:255 29 0] [0x2 2 1 [0 0] [4 4]] (REQUEST)
D 0.108061716 _21_ MAC  COL 0 AODV 106 [0 ffffffff 13 800] [energy 89.897364 ei 0.101 es 0.000 et 0.000 er 0.001] ------- [19:255 -1:255 29 0] [0x2 2 1 [0 0] [4 4]] (REQUEST)
D 0.112230417 _36_ MAC  COL 0 AODV 106 [0 ffffffff 29 800] [energy 89.895846 ei 0.102 es 0.000 et 0.000 er 0.002] ------- [41:255 -1:255 28 0] [0x2 3 1 [0 0] [4 4]] (REQUEST)
D 0.112230526 _43_ MAC  COL 0 AODV 106 [0 ffffffff 23 800] [energy 89.895846 ei 0.102 es 0.000 et 0.000 er 0.002] ------- [35:255 -1:255 28 0] [0x2 3 1 [0 0] [4 4]] (REQUEST)
D 0.112230602 _26_ MAC  COL 0 AODV 106 [0 ffffffff 23 800] [energy 89.895846 ei 0.102 es 0.000 et 0.000 er 0.002] ------- [35:255 -1:255 28 0] [0x2 3 1 [0 0] [4 4]] (REQUEST)
D 0.112230765 _31_ MAC  COL 0 AODV 106 [0 ffffffff 23 800] [energy 89.895846 ei 0.102 es 0.000 et 0.000 er 0.002] ------- [35:255 -1:255 28 0] [0x2 3 1 [0 0] [4 4]] (REQUEST)
D 0.112230996 _10_ MAC  COL 0 AODV 106 [0 ffffffff 29 800] [energy 89.894997 ei 0.102 es 0.000 et 0.001 er 0.002] ------- [41:255 -1:255 28 0] [0x2 3 1 [0 0] [4 4]] (REQUEST)
D 0.112231015 _37_ MAC  COL 0 AODV 106 [0 ffffffff 23 800] [energy 89.894997 ei 0.102 es 0.000 et 0.001 er 0.002] ------- [35:255 -1:255 28 0] [0x2 3 1 [0 0] [4 4]] (REQUEST)
D 0.112231035 _17_ MAC  COL 0 AODV 106 [0 ffffffff 23 800] [energy 89.894997 ei 0.102 es 0.000 et 0.001 er 0.002] ------- [35:255 -1:255 28 0] [0x2 3 1 [0 0] [4 4]] (REQUEST)
D 0.112231048 _28_ MAC  COL 0 AODV 106 [0 ffffffff 29 800] [energy 89.893588 ei 0.105 es 0.000 et 0.000 er 0.001] ------- [41:255 -1:255 28 0] [0x2 3 1 [0 0] [4 4]] (REQUEST)
D 0.112231064 _42_ MAC  COL 0 AODV 106 [0 ffffffff 23 800] [energy 89.895845 ei 0.102 es 0.000 et 0.000 er 0.002] ------- [35:255 -1:255 28 0] [0x2 3 1 [0 0] [4 4]] (REQUEST)
D 0.112231163 _38_ MAC  COL 0 AODV 106 [0 ffffffff 29 800] [energy 89.895845 ei 0.102 es 0.000 et 0.000 er 0.002] ------- [41:255 -1:255 28 0] [0x2 3 1 [0 0] [4 4]] (REQUEST)
D 0.112231178 _12_ MAC  COL 0 AODV 106 [0 ffffffff 29 800] [energy 89.895845 ei 0.102 es 0.000 et 0.000 er 0.002] ------- [41:255 -1:255 28 0] [0x2 3 1 [0 0] [4 4]] (REQUEST)
D 0.112231202 _18_ MAC  COL 0 AODV 106 [0 ffffffff 29 800] [energy 89.895845 ei 0.102 es 0.000 et 0.000 er 0.002] ------- [41:255 -1:255 28 0] [0x2 3 1 [0 0] [4 4]] (REQUEST)
D 0.113078417 _36_ MAC  COL 0 AODV 106 [0 ffffffff 23 800] [energy 89.895846 ei 0.102 es 0.000 et 0.000 er 0.002] ------- [35:255 -1:255 28 0] [0x2 3 1 [0 0] [4 4]] (REQUEST)
D 0.113078526 _43_ MAC  COL 0 AODV 106 [0 ffffffff 29 800] [energy 89.895846 ei 0.102 es 0.000 et 0.000 er 0.002] ------- [41:255 -1:255 28 0] [0x2 3 1 [0 0] [4 4]] (REQUEST)
D 0.113078602 _26_ MAC  COL 0 AODV 106 [0 ffffffff 29 800] [energy 89.895846 ei 0.102 es 0.000 et 0.000 er 0.002] ------- [41:255 -1:255 28 0] [0x2 3 1 [0 0] [4 4]] (REQUEST)
D 0.113078765 _31_ MAC  COL 0 AODV 106 [0 ffffffff 29 800] [energy 89.895846 ei 0.102 es 0.000 et 0.000 er 0.002] ------- [41:255 -1:255 28 0] [0x2 3 1 [0 0] [4 4]] (REQUEST)
D 0.113079015 _37_ MAC  COL 0 AODV 106 [0 ffffffff 29 800] [energy 89.894997 ei 0.102 es 0.000 et 0.001 er 0.002] ------- [41:255 -1:255 28 0] [0x2 3 1 [0 0] [4 4]] (REQUEST)
D 0.115370896 _4_ MAC  COL 0 RTS 44 [5ae 4 0 0] [energy 89.892916 ei 0.103 es 0.000 et 0.002 er 0.002] 
D 0.116217794 _41_ MAC  COL 0 AODV 106 [0 ffffffff 24 800] [energy 89.893958 ei 0.103 es 0.000 et 0.001 er 0.002] ------- [36:255 -1:255 28 0] [0x2 3 1 [0 0] [4 4]] (REQUEST)
D 0.116217874 _3_ MAC  COL 0 AODV 106 [0 ffffffff 24 800] [energy 89.894806 ei 0.103 es 0.000 et 0.000 er 0.002] ------- [36:255 -1:255 28 0] [0x2 3 1 [0 0] [4 4]] (REQUEST)
D 0.116217933 _6_ MAC  COL 0 AODV 106 [0 ffffffff 24 800] [energy 89.894806 ei 0.103 es 0.000 et 0.000 er 0.002] ------- [36:255 -1:255 28 0] [0x2 3 1 [0 0] [4 4]] (REQUEST)
D 0.116217968 _43_ MAC  COL 0 AODV 106 [0 ffffffff 24 800] [energy 89.894805 ei 0.103 es 0.000 et 0.000 er 0.002] ------- [36:255 -1:255 28 0] [0x2 3 1 [0 0] [4 4]] (REQUEST)
D 0.116217996 _35_ MAC  COL 0 AODV 106 [0 ffffffff 24 800] [energy 89.893958 ei 0.103 es 0.000 et 0.001 er 0.002] ------- [36:255 -1:255 28 0] [0x2 3 1 [0 0] [4 4]] (REQUEST)
D 0.116218040 _25_ MAC  COL 0 AODV 106 [0 ffffffff 24 800] [energy 89.894805 ei 0.103 es 0.000 et 0.000 er 0.002] ------- [36:255 -1:255 28 0] [0x2 3 1 [0 0] [4 4]] (REQUEST)
D 0.116218072 _1_ MAC  COL 0 AODV 106 [0 ffffffff 24 800] [energy 89.894806 ei 0.103 es 0.000 et 0.000 er 0.002] ------- [36:255 -1:255 28 0] [0x2 3 1 [0 0] [4 4]] (REQUEST)
D 0.116218155 _33_ MAC  COL 0 AODV 106 [0 ffffffff 24 800] [energy 89.894805 ei 0.103 es 0.000 et 0.000 er 0.002] ------- [36:255 -1:255 28 0] [0x2 3 1 [0 0] [4 4]] (REQUEST)
D 0.116218207 _11_ MAC  COL 0 AODV 106 [0 ffffffff 24 800] [energy 89.894805 ei 0.103 es 0.000 et 0.000 er 0.002] ------- [36:255 -1:255 28 0] [0x2 3 1 [0 0] [4 4]] (REQUEST)
D 0.116218336 _28_ MAC  COL 0 AODV 106 [0 ffffffff 24 800] [energy 89.892547 ei 0.106 es 0.000 et 0.000 er 0.002] ------- [36:255 -1:255 28 0] [0x2 3 1 [0 0] [4 4]] (REQUEST)
D 0.116218336 _24_ MAC  COL 0 AODV 106 [0 ffffffff 24 800] [energy 89.894805 ei 0.103 es 0.000 et 0.000 er 0.002] ------- [36:255 -1:255 28 0] [0x2 3 1 [0 0] [4 4]] (REQUEST)
D 0.116218369 _38_ MAC  COL 0 AODV 106 [0 ffffffff 24 800] [energy 89.894805 ei 0.103 es 0.000 et 0.000 er 0.002] ------- [36:255 -1:255 28 0] [0x2 3 1 [0 0] [4 4]] (REQUEST)
D 0.116218369 _34_ MAC  COL 0 AODV 106 [0 ffffffff 24 800] [energy 89.894805 ei 0.103 es 0.000 et 0.000 er 0.002] ------- [36:255 -1:255 28 0] [0x2 3 1 [0 0] [4 4]] (REQUEST)
D 0.116218410 _18_ MAC  COL 0 AODV 106 [0 ffffffff 24 800] [energy 89.894805 ei 0.103 es 0.000 et 0.000 er 0.002] ------- [36:255 -1:255 28 0] [0x2 3 1 [0 0] [4 4]] (REQUEST)
D 0.116218444 _12_ MAC  COL 0 AODV 106 [0 ffffffff 24 800] [energy 89.894805 ei 0.103 es 0.000 et 0.000 er 0.002] ------- [36:255 -1:255 28 0] [0x2 3 1 [0 0] [4 4]] (REQUEST)
D 0.120652254 _38_ MAC  COL 0 AODV 106 [0 ffffffff 1c 800] [energy 89.892251 ei 0.104 es 0.000 et 0.000 er 0.004] ------- [28:255 -1:255 27 0] [0x2 4 1 [0 0] [4 4]] (REQUEST)
D 0.120652338 _18_ MAC  COL 0 AODV 106 [0 ffffffff 1c 800] [energy 89.892251 ei 0.104 es 0.000 et 0.000 er 0.004] ------- [28:255 -1:255 27 0] [0x2 4 1 [0 0] [4 4]] (REQUEST)
D 0.120652338 _26_ MAC  COL 0 AODV 106 [0 ffffffff 1c 800] [energy 89.892251 ei 0.104 es 0.000 et 0.000 er 0.004] ------- [28:255 -1:255 27 0] [0x2 4 1 [0 0] [4 4]] (REQUEST)
D 0.120652342 _15_ MAC  COL 0 AODV 106 [0 ffffffff 1c 800] [energy 89.891403 ei 0.104 es 0.000 et 0.001 er 0.004] ------- [28:255 -1:255 27 0] [0x2 4 1 [0 0] [4 4]] (REQUEST)
D 0.120652357 _31_ MAC  COL 0 AODV 106 [0 ffffffff 1c 800] [energy 89.892251 ei 0.104 es 0.000 et 0.000 er 0.004] ------- [28:255 -1:255 27 0] [0x2 4 1 [0 0] [4 4]] (REQUEST)
D 0.120652383 _36_ MAC  COL 0 AODV 106 [0 ffffffff 1c 800] [energy 89.891403 ei 0.104 es 0.000 et 0.001 er 0.004] ------- [28:255 -1:255 27 0] [0x2 4 1 [0 0] [4 4]] (REQUEST)
D 0.120652459 _41_ MAC  COL 0 AODV 106 [0 ffffffff 1c 800] [energy 89.891404 ei 0.104 es 0.000 et 0.001 er 0.004] ------- [28:255 -1:255 27 0] [0x2 4 1 [0 0] [4 4]] (REQUEST)
D 0.120652504 _3_ MAC  COL 0 AODV 106 [0 ffffffff 1c 800] [energy 89.892252 ei 0.104 es 0.000 et 0.000 er 0.004] ------- [28:255 -1:255 27 0] [0x2 4 1 [0 0] [4 4]] (REQUEST)
D 0.120652504 _1_ MAC  COL 0 AODV 106 [0 ffffffff 1c 800] [energy 89.892252 ei 0.104 es 0.000 et 0.000 er 0.004] ------- [28:255 -1:255 27 0] [0x2 4 1 [0 0] [4 4]] (REQUEST)
D 0.127272270 _0_ MAC  COL 0 cbr 878 [13a 0 4 800] [energy 89.889132 ei 0.104 es 0.000 et 0.004 er 0.004] ------- [4:5 0:0 30 0] [0] 0 0
D 0.128067993 _3_ MAC  COL 0 AODV 106 [0 ffffffff d 800] [energy 89.891622 ei 0.104 es 0.000 et 0.000 er 0.004] ------- [13:255 -1:255 28 0] [0x2 3 1 [0 0] [4 4]] (REQUEST)
D 0.128068060 _6_ MAC  COL 0 AODV 106 [0 ffffffff d 800] [energy 89.891622 ei 0.104 es 0.000 et 0.000 er 0.004] ------- [13:255 -1:255 28 0] [0x2 3 1 [0 0] [4 4]] (REQUEST)
D 0.128068106 _16_ MAC  COL 0 AODV 106 [0 ffffffff d 800] [energy 89.890774 ei 0.104 es 0.000 et 0.001 er 0.004] ------- [13:255 -1:255 28 0] [0x2 3 1 [0 0] [4 4]] (REQUEST)
D 0.128915105 _27_ MAC  COL 0 AODV 106 [0 ffffffff 20 800] [energy 89.891621 ei 0.104 es 0.000 et 0.000 er 0.004] ------- [32:255 -1:255 28 0] [0x2 3 1 [0 0] [4 4]] (REQUEST)
D 0.128915105 _30_ MAC  COL 0 AODV 106 [0 ffffffff 20 800] [energy 89.891621 ei 0.104 es 0.000 et 0.000 er 0.004] ------- [32:255 -1:255 28 0] [0x2 3 1 [0 0] [4 4]] (REQUEST)
D 0.128915111 _34_ MAC  COL 0 AODV 106 [0 ffffffff 20 800] [energy 89.891621 ei 0.104 es 0.000 et 0.000 er 0.004] ------- [32:255 -1:255 28 0] [0x2 3 1 [0 0] [4 4]] (REQUEST)
D 0.128915163 _24_ MAC  COL 0 AODV 106 [0 ffffffff 20 800] [energy 89.891621 ei 0.104 es 0.000 et 0.000 er 0.004] ------- [32:255 -1:255 28 0] [0x2 3 1 [0 0] [4 4]] (REQUEST)
D 0.128915425 _33_ MAC  COL 0 AODV 106 [0 ffffffff 20 800] [energy 89.891488 ei 0.104 es 0.000 et 0.000 er 0.004] ------- [32:255 -1:255 28 0] [0x2 3 1 [0 0] [4 4]] (REQUEST)
D 0.128915451 _25_ MAC  COL 0 AODV 106 [0 ffffffff 20 800] [energy 89.891488 ei 0.104 es 0.000 et 0.000 er 0.004] ------- [32:255 -1:255 28 0] [0x2 3 1 [0 0] [4 4]] (REQUEST)
D 0.128915484 _35_ MAC  COL 0 AODV 106 [0 ffffffff 20 800] [energy 89.890641 ei 0.104 es 0.000 et 0.001 er 0.004] ------- [32:255 -1:255 28 0] [0x2 3 1 [0 0] [4 4]] (REQUEST)
D 0.128915637 _43_ MAC  COL 0 AODV 106 [0 ffffffff 20 800] [energy 89.891489 ei 0.104 es 0.000 et 0.000 er 0.004] ------- [32:255 -1:255 28 0] [0x2 3 1 [0 0] [4 4]] (REQUEST)
D 0.128915688 _37_ MAC  COL 0 AODV 106 [0 ffffffff 20 800] [energy 89.890640 ei 0.104 es 0.000 et 0.001 er 0.004] ------- [32:255 -1:255 28 0] [0x2 3 1 [0 0] [4 4]] (REQUEST)
D 0.128915758 _31_ MAC  COL 0 AODV 106 [0 ffffffff 20 800] [energy 89.891488 ei 0.104 es 0.000 et 0.000 er 0.004] ------- [32:255 -1:255 28 0] [0x2 3 1 [0 0] [4 4]] (REQUEST)
D 0.128915771 _17_ MAC  COL 0 AODV 106 [0 ffffffff 20 800] [energy 89.890640 ei 0.104 es 0.000 et 0.001 er 0.004] ------- [32:255 -1:255 28 0] [0x2 3 1 [0 0] [4 4]] (REQUEST)
D 0.128915774 _26_ MAC  COL 0 AODV 106 [0 ffffffff 20 800] [energy 89.891488 ei 0.104 es 0.000 et 0.000 er 0.004] ------- [32:255 -1:255 28 0] [0x2 3 1 [0 0] [4 4]] (REQUEST)
D 0.129390230 _1_ MAC  COL 0 AODV 106 [0 ffffffff 8 800] [energy 89.891391 ei 0.104 es 0.000 et 0.000 er 0.005] ------- [8:255 -1:255 28 0] [0x2 3 1 [0 0] [4 4]] (REQUEST)
D 0.129390230 _2_ MAC  COL 0 AODV 106 [0 ffffffff 8 800] [energy 89.890542 ei 0.104 es 0.000 et 0.001 er 0.004] ------- [8:255 -1:255 28 0] [0x2 3 1 [0 0] [4 4]] (REQUEST)
D 0.129390359 _11_ MAC  COL 0 AODV 106 [0 ffffffff 8 800] [energy 89.891391 ei 0.104 es 0.000 et 0.000 er 0.005] ------- [8:255 -1:255 28 0] [0x2 3 1 [0 0] [4 4]] (REQUEST)
D 0.130237875 _36_ MAC  COL 0 AODV 106 [0 ffffffff 18 800] [energy 89.890542 ei 0.104 es 0.000 et 0.001 er 0.004] ------- [24:255 -1:255 28 0] [0x2 3 1 [0 0] [4 4]] (REQUEST)
D 0.130237927 _15_ MAC  COL 0 AODV 106 [0 ffffffff 18 800] [energy 89.890542 ei 0.104 es 0.000 et 0.001 er 0.004] ------- [24:255 -1:255 28 0] [0x2 3 1 [0 0] [4 4]] (REQUEST)
D 0.130237931 _42_ MAC  COL 0 AODV 106 [0 ffffffff 18 800] [energy 89.890542 ei 0.104 es 0.000 et 0.001 er 0.004] ------- [24:255 -1:255 28 0] [0x2 3 1 [0 0] [4 4]] (REQUEST)
D 0.130237951 _41_ MAC  COL 0 AODV 106 [0 ffffffff 18 800] [energy 89.890542 ei 0.104 es 0.000 et 0.001 er 0.004] ------- [24:255 -1:255 28 0] [0x2 3 1 [0 0] [4 4]] (REQUEST)
D 0.130237996 _3_ MAC  COL 0 AODV 106 [0 ffffffff 18 800] [energy 89.891390 ei 0.104 es 0.000 et 0.000 er 0.005] ------- [24:255 -1:255 28 0] [0x2 3 1 [0 0] [4 4]] (REQUEST)
D 0.130237996 _0_ MAC  COL 0 AODV 106 [0 ffffffff 18 800] [energy 89.888270 ei 0.104 es 0.000 et 0.004 er 0.004] ------- [24:255 -1:255 28 0] [0x2 3 1 [0 0] [4 4]] (REQUEST)
D 0.131171660 _7_ MAC  COL 0 AODV 106 [0 ffffffff 17 800] [energy 89.890930 ei 0.104 es 0.000 et 0.000 er 0.005] ------- [23:255 -1:255 27 0] [0x2 4 1 [0 0] [4 4]] (REQUEST)
D 0.131171778 _13_ MAC  COL 0 AODV 106 [0 ffffffff 17 800] [energy 89.890082 ei 0.104 es 0.000 et 0.001 er 0.005] ------- [23:255 -1:255 27 0] [0x2 4 1 [0 0] [4 4]] (REQUEST)
D 0.131171882 _12_ MAC  COL 0 AODV 106 [0 ffffffff 17 800] [energy 89.891169 ei 0.104 es 0.000 et 0.000 er 0.005] ------- [23:255 -1:255 27 0] [0x2 4 1 [0 0] [4 4]] (REQUEST)
D 0.131171961 _21_ MAC  COL 0 AODV 106 [0 ffffffff 17 800] [energy 89.890929 ei 0.104 es 0.000 et 0.000 er 0.005] ------- [23:255 -1:255 27 0] [0x2 4 1 [0 0] [4 4]] (REQUEST)
D 0.131172111 _18_ MAC  COL 0 AODV 106 [0 ffffffff 17 800] [energy 89.891169 ei 0.104 es 0.000 et 0.000 er 0.005] ------- [23:255 -1:255 27 0] [0x2 4 1 [0 0] [4 4]] (REQUEST)
D 0.131172116 _11_ MAC  COL 0 AODV 106 [0 ffffffff 17 800] [energy 89.891169 ei 0.104 es 0.000 et 0.000 er 0.005] ------- [23:255 -1:255 27 0] [0x2 4 1 [0 0] [4 4]] (REQUEST)
D 0.132244509 _33_ MAC  COL 0 AODV 106 [0 ffffffff 19 800] [energy 89.889786 ei 0.104 es 0.000 et 0.001 er 0.005] ------- [25:255 -1:255 28 0] [0x2 3 1 [0 0] [4 4]] (REQUEST)
D 0.132244702 _43_ MAC  COL 0 AODV 106 [0 ffffffff 19 800] [energy 89.890648 ei 0.104 es 0.000 et 0.000 er 0.005] ------- [25:255 -1:255 28 0] [0x2 3 1 [0 0] [4 4]] (REQUEST)
D 0.132244849 _37_ MAC  COL 0 AODV 106 [0 ffffffff 19 800] [energy 89.889800 ei 0.104 es 0.000 et 0.001 er 0.005] ------- [25:255 -1:255 28 0] [0x2 3 1 [0 0] [4 4]] (REQUEST)
D 0.132244931 _17_ MAC  COL 0 AODV 106 [0 ffffffff 19 800] [energy 89.889800 ei 0.104 es 0.000 et 0.001 er 0.005] ------- [25:255 -1:255 28 0] [0x2 3 1 [0 0] [4 4]] (REQUEST)
D 0.132244962 _15_ MAC  COL 0 AODV 106 [0 ffffffff 19 800] [energy 89.889800 ei 0.104 es 0.000 et 0.001 er 0.005] ------- [25:255 -1:255 28 0] [0x2 3 1 [0 0] [4 4]] (REQUEST)
D 0.132245001 _41_ MAC  COL 0 AODV 106 [0 ffffffff 19 800] [energy 89.889800 ei 0.104 es 0.000 et 0.001 er 0.005] ------- [25:255 -1:255 28 0] [0x2 3 1 [0 0] [4 4]] (REQUEST)
D 0.132245052 _3_ MAC  COL 0 AODV 106 [0 ffffffff 19 800] [energy 89.890648 ei 0.104 es 0.000 et 0.000 er 0.005] ------- [25:255 -1:255 28 0] [0x2 3 1 [0 0] [4 4]] (REQUEST)
D 0.132245067 _0_ MAC  COL 0 AODV 106 [0 ffffffff 19 800] [energy 89.887528 ei 0.104 es 0.000 et 0.004 er 0.004] ------- [25:255 -1:255 28 0] [0x2 3 1 [0 0] [4 4]] (REQUEST)
D 0.132245119 _6_ MAC  COL 0 AODV 106 [0 ffffffff 19 800] [energy 89.890648 ei 0.104 es 0.000 et 0.000 er 0.005] ------- [25:255 -1:255 28 0] [0x2 3 1 [0 0] [4 4]] (REQUEST)
D 0.132245168 _14_ MAC  COL 0 AODV 106 [0 ffffffff 19 800] [energy 89.889800 ei 0.104 es 0.000 et 0.001 er 0.005] ------- [25:255 -1:255 28 0] [0x2 3 1 [0 0] [4 4]] (REQUEST)
D 0.132245170 _16_ MAC  COL 0 AODV 106 [0 ffffffff 19 800] [energy 89.889800 ei 0.104 es 0.000 et 0.001 er 0.005] ------- [25:255 -1:255 28 0] [0x2 3 1 [0 0] [4 4]] (REQUEST)
D 0.132245287 _1_ MAC  COL 0 AODV 106 [0 ffffffff 19 800] [energy 89.890648 ei 0.104 es 0.000 et 0.000 er 0.005] ------- [25:255 -1:255 28 0] [0x2 3 1 [0 0] [4 4]] (REQUEST)
D 0.133092509 _33_ MAC  COL 0 AODV 106 [0 ffffffff 22 800] [energy 89.889786 ei 0.104 es 0.000 et 0.001 er 0.005] ------- [34:255 -1:255 28 0] [0x2 3 1 [0 0] [4 4]] (REQUEST)
D 0.133092702 _43_ MAC  COL 0 AODV 106 [0 ffffffff 22 800] [energy 89.890648 ei 0.104 es 0.000 et 0.000 er 0.005] ------- [34:255 -1:255 28 0] [0x2 3 1 [0 0] [4 4]] (REQUEST)
D 0.133092849 _37_ MAC  COL 0 AODV 106 [0 ffffffff 22 800] [energy 89.889800 ei 0.104 es 0.000 et 0.001 er 0.005] ------- [34:255 -1:255 28 0] [0x2 3 1 [0 0] [4 4]] (REQUEST)
D 0.133092931 _17_ MAC  COL 0 AODV 106 [0 ffffffff 22 800] [energy 89.889800 ei 0.104 es 0.000 et 0.001 er 0.005] ------- [34:255 -1:255 28 0] [0x2 3 1 [0 0] [4 4]] (REQUEST)
D 0.133092962 _15_ MAC  COL 0 AODV 106 [0 ffffffff 22 800] [energy 89.889800 ei 0.104 es 0.000 et 0.001 er 0.005] ------- [34:255 -1:255 28 0] [0x2 3 1 [0 0] [4 4]] (REQUEST)
D 0.133528645 _16_ MAC  COL 0 AODV 106 [0 ffffffff 1f 800] [energy 89.889217 ei 0.105 es 0.000 et 0.001 er 0.005] ------- [31:255 -1:255 27 0] [0x2 4 1 [0 0] [4 4]] (REQUEST)
D 0.133528730 _6_ MAC  COL 0 AODV 106 [0 ffffffff 1f 800] [energy 89.890065 ei 0.105 es 0.000 et 0.000 er 0.005] ------- [31:255 -1:255 27 0] [0x2 4 1 [0 0] [4 4]] (REQUEST)
D 0.133528798 _3_ MAC  COL 0 AODV 106 [0 ffffffff 1f 800] [energy 89.890065 ei 0.105 es 0.000 et 0.000 er 0.005] ------- [31:255 -1:255 27 0] [0x2 4 1 [0 0] [4 4]] (REQUEST)
D 0.133528872 _41_ MAC  COL 0 AODV 106 [0 ffffffff 1f 800] [energy 89.889217 ei 0.105 es 0.000 et 0.001 er 0.005] ------- [31:255 -1:255 27 0] [0x2 4 1 [0 0] [4 4]] (REQUEST)
D 0.134376233 _12_ MAC  COL 0 AODV 106 [0 ffffffff 7 800] [energy 89.890064 ei 0.105 es 0.000 et 0.000 er 0.005] ------- [7:255 -1:255 28 0] [0x2 3 1 [0 0] [4 4]] (REQUEST)
D 0.134376371 _13_ MAC  COL 0 AODV 106 [0 ffffffff 7 800] [energy 89.888976 ei 0.105 es 0.000 et 0.001 er 0.005] ------- [7:255 -1:255 28 0] [0x2 3 1 [0 0] [4 4]] (REQUEST)
D 0.134376459 _11_ MAC  COL 0 AODV 106 [0 ffffffff 7 800] [energy 89.890065 ei 0.105 es 0.000 et 0.000 er 0.005] ------- [7:255 -1:255 28 0] [0x2 3 1 [0 0] [4 4]] (REQUEST)
D 0.134376501 _2_ MAC  COL 0 AODV 106 [0 ffffffff 7 800] [energy 89.889217 ei 0.105 es 0.000 et 0.001 er 0.005] ------- [7:255 -1:255 28 0] [0x2 3 1 [0 0] [4 4]] (REQUEST)
D 0.134376567 _5_ MAC  COL 0 AODV 106 [0 ffffffff 7 800] [energy 89.889215 ei 0.105 es 0.000 et 0.001 er 0.005] ------- [7:255 -1:255 28 0] [0x2 3 1 [0 0] [4 4]] (REQUEST)
D 0.134376583 _20_ MAC  COL 0 AODV 106 [0 ffffffff 7 800] [energy 89.890063 ei 0.105 es 0.000 et 0.000 er 0.005] ------- [7:255 -1:255 28 0] [0x2 3 1 [0 0] [4 4]] (REQUEST)
D 0.134376587 _1_ MAC  COL 0 AODV 106 [0 ffffffff 7 800] [energy 89.890065 ei 0.105 es 0.000 et 0.000 er 0.005] ------- [7:255 -1:255 28 0] [0x2 3 1 [0 0] [4 4]] (REQUEST)
D 0.134376643 _14_ MAC  COL 0 AODV 106 [0 ffffffff 7 800] [energy 89.889216 ei 0.105 es 0.000 et 0.001 er 0.005] ------- [7:255 -1:255 28 0] [0x2 3 1 [0 0] [4 4]] (REQUEST)
D 0.134376645 _18_ MAC  COL 0 AODV 106 [0 ffffffff 7 800] [energy 89.890064 ei 0.105 es 0.000 et 0.000 er 0.005] ------- [7:255 -1:255 28 0] [0x2 3 1 [0 0] [4 4]] (REQUEST)
D 0.134376645 _16_ MAC  COL 0 AODV 106 [0 ffffffff 7 800] [energy 89.889217 ei 0.105 es 0.000 et 0.001 er 0.005] ------- [7:255 -1:255 28 0] [0x2 3 1 [0 0] [4 4]] (REQUEST)
D 0.134376674 _10_ MAC  COL 0 AODV 106 [0 ffffffff 7 800] [energy 89.889216 ei 0.105 es 0.000 et 0.001 er 0.005] ------- [7:255 -1:255 28 0] [0x2 3 1 [0 0] [4 4]] (REQUEST)
D 0.134376721 _38_ MAC  COL 0 AODV 106 [0 ffffffff 7 800] [energy 89.890065 ei 0.105 es 0.000 et 0.000 er 0.005] ------- [7:255 -1:255 28 0] [0x2 3 1 [0 0] [4 4]] (REQUEST)
D 0.134376730 _6_ MAC  COL 0 AODV 106 [0 ffffffff 7 800] [energy 89.890065 ei 0.105 es 0.000 et 0.000 er 0.005] ------- [7:255 -1:255 28 0] [0x2 3 1 [0 0] [4 4]] (REQUEST)
D 0.134376733 _0_ MAC  COL 0 AODV 106 [0 ffffffff 7 800] [energy 89.886945 ei 0.105 es 0.000 et 0.004 er 0.005] ------- [7:255 -1:255 28 0] [0x2 3 1 [0 0] [4 4]] (REQUEST)
D 0.134811399 _12_ MAC  COL 0 AODV 106 [0 ffffffff 15 800] [energy 89.889481 ei 0.105 es 0.000 et 0.000 er 0.005] ------- [21:255 -1:255 29 0] [0x2 2 1 [0 0] [4 4]] (REQUEST)
D 0.134811452 _10_ MAC  COL 0 AODV 106 [0 ffffffff 15 800] [energy 89.888633 ei 0.105 es 0.000 et 0.001 er 0.005] ------- [21:255 -1:255 29 0] [0x2 2 1 [0 0] [4 4]] (REQUEST)
D 0.134811524 _36_ MAC  COL 0 AODV 106 [0 ffffffff 3 800] [energy 89.888634 ei 0.105 es 0.000 et 0.001 er 0.005] ------- [3:255 -1:255 28 0] [0x2 3 1 [0 0] [4 4]] (REQUEST)
D 0.134811538 _18_ MAC  COL 0 AODV 106 [0 ffffffff 3 800] [energy 89.889481 ei 0.105 es 0.000 et 0.000 er 0.005] ------- [3:255 -1:255 28 0] [0x2 3 1 [0 0] [4 4]] (REQUEST)
D 0.134811542 _15_ MAC  COL 0 AODV 106 [0 ffffffff 3 800] [energy 89.888634 ei 0.105 es 0.000 et 0.001 er 0.005] ------- [3:255 -1:255 28 0] [0x2 3 1 [0 0] [4 4]] (REQUEST)
D 0.134811604 _38_ MAC  COL 0 AODV 106 [0 ffffffff 3 800] [energy 89.889481 ei 0.105 es 0.000 et 0.000 er 0.005] ------- [3:255 -1:255 28 0] [0x2 3 1 [0 0] [4 4]] (REQUEST)
D 0.134811608 _25_ MAC  COL 0 AODV 106 [0 ffffffff 3 800] [energy 89.888635 ei 0.105 es 0.000 et 0.001 er 0.005] ------- [3:255 -1:255 28 0] [0x2 3 1 [0 0] [4 4]] (REQUEST)
D 0.134811618 _35_ MAC  COL 0 AODV 106 [0 ffffffff 3 800] [energy 89.888634 ei 0.105 es 0.000 et 0.001 er 0.005] ------- [3:255 -1:255 28 0] [0x2 3 1 [0 0] [4 4]] (REQUEST)
D 0.134811631 _13_ MAC  COL 0 AODV 106 [0 ffffffff 15 800] [energy 89.888393 ei 0.105 es 0.000 et 0.001 er 0.005] ------- [21:255 -1:255 29 0] [0x2 2 1 [0 0] [4 4]] (REQUEST)
D 0.134811646 _33_ MAC  COL 0 AODV 106 [0 ffffffff 3 800] [energy 89.888620 ei 0.105 es 0.000 et 0.001 er 0.005] ------- [3:255 -1:255 28 0] [0x2 3 1 [0 0] [4 4]] (REQUEST)
D 0.134811699 _37_ MAC  COL 0 AODV 106 [0 ffffffff 3 800] [energy 89.888633 ei 0.105 es 0.000 et 0.001 er 0.005] ------- [3:255 -1:255 28 0] [0x2 3 1 [0 0] [4 4]] (REQUEST)
D 0.134811748 _43_ MAC  COL 0 AODV 106 [0 ffffffff 3 800] [energy 89.889482 ei 0.105 es 0.000 et 0.000 er 0.005] ------- [3:255 -1:255 28 0] [0x2 3 1 [0 0] [4 4]] (REQUEST)
D 0.134811783 _24_ MAC  COL 0 AODV 106 [0 ffffffff 3 800] [energy 89.888228 ei 0.106 es 0.000 et 0.001 er 0.005] ------- [3:255 -1:255 28 0] [0x2 3 1 [0 0] [4 4]] (REQUEST)
D 0.134811865 _8_ MAC  COL 0 AODV 106 [0 ffffffff 15 800] [energy 89.887914 ei 0.106 es 0.000 et 0.001 er 0.005] ------- [21:255 -1:255 29 0] [0x2 2 1 [0 0] [4 4]] (REQUEST)
D 0.134811941 _28_ MAC  COL 0 AODV 106 [0 ffffffff 3 800] [energy 89.880489 ei 0.115 es 0.000 et 0.001 er 0.003] ------- [3:255 -1:255 28 0] [0x2 3 1 [0 0] [4 4]] (REQUEST)
D 0.134812117 _25_ MAC  COL 0 AODV 106 [0 ffffffff 1a 800] [energy 89.888634 ei 0.105 es 0.000 et 0.001 er 0.005] ------- [26:255 -1:255 28 0] [0x2 3 1 [0 0] [4 4]] (REQUEST)
D 0.134812124 _35_ MAC  COL 0 AODV 106 [0 ffffffff 1a 800] [energy 89.888634 ei 0.105 es 0.000 et 0.001 er 0.005] ------- [26:255 -1:255 28 0] [0x2 3 1 [0 0] [4 4]] (REQUEST)
D 0.134812144 _33_ MAC  COL 0 AODV 106 [0 ffffffff 1a 800] [energy 89.888620 ei 0.105 es 0.000 et 0.001 er 0.005] ------- [26:255 -1:255 28 0] [0x2 3 1 [0 0] [4 4]] (REQUEST)
D 0.134812225 _43_ MAC  COL 0 AODV 106 [0 ffffffff 1a 800] [energy 89.889482 ei 0.105 es 0.000 et 0.000 er 0.005] ------- [26:255 -1:255 28 0] [0x2 3 1 [0 0] [4 4]] (REQUEST)
D 0.134812278 _37_ MAC  COL 0 AODV 106 [0 ffffffff 1e 800] [energy 89.888633 ei 0.105 es 0.000 et 0.001 er 0.005] ------- [30:255 -1:255 28 0] [0x2 3 1 [0 0] [4 4]] (REQUEST)
D 0.134812329 _12_ MAC  COL 0 AODV 106 [0 ffffffff 3 800] [energy 89.889481 ei 0.105 es 0.000 et 0.000 er 0.005] ------- [3:255 -1:255 28 0] [0x2 3 1 [0 0] [4 4]] (REQUEST)
D 0.134812329 _17_ MAC  COL 0 AODV 106 [0 ffffffff 1e 800] [energy 89.888633 ei 0.105 es 0.000 et 0.001 er 0.005] ------- [30:255 -1:255 28 0] [0x2 3 1 [0 0] [4 4]] (REQUEST)
D 0.134812375 _10_ MAC  COL 0 AODV 106 [0 ffffffff 3 800] [energy 89.888633 ei 0.105 es 0.000 et 0.001 er 0.005] ------- [3:255 -1:255 28 0] [0x2 3 1 [0 0] [4 4]] (REQUEST)