D 0.007963037 _39_ MAC  COL 0 AODV 106 [0 ffffffff 2f 800] [energy 89.997485 ei 0.001 es 0.000 et 0.000 er 0.001] ------- [47:255 -1:255 29 0] [0x2 2 1 [0 0] [13 4]] (REQUEST)
D 0.007963130 _52_ MAC  COL 0 AODV 106 [0 ffffffff 2f 800] [energy 89.997485 ei 0.001 es 0.000 et 0.000 er 0.001] ------- [47:255 -1:255 29 0] [0x2 2 1 [0 0] [13 4]] (REQUEST)
D 0.007963155 _23_ MAC  COL 0 AODV 106 [0 ffffffff 2f 800] [energy 89.997485 ei 0.001 es 0.000 et 0.000 er 0.001] ------- [47:255 -1:255 29 0] [0x2 2 1 [0 0] [13 4]] (REQUEST)
D 0.007963174 _48_ MAC  COL 0 AODV 106 [0 ffffffff 2f 800] [energy 89.997485 ei 0.001 es 0.000 et 0.000 er 0.001] ------- [47:255 -1:255 29 0] [0x2 2 1 [0 0] [13 4]] (REQUEST)
D 0.007963181 _45_ MAC  COL 0 AODV 106 [0 ffffffff 2f 800] [energy 89.997486 ei 0.001 es 0.000 et 0.000 er 0.001] ------- [47:255 -1:255 29 0] [0x2 2 1 [0 0] [13 4]] (REQUEST)
D 0.007963195 _12_ MAC  COL 0 AODV 106 [0 ffffffff 2f 800] [energy 89.997485 ei 0.001 es 0.000 et 0.000 er 0.001] ------- [47:255 -1:255 29 0] [0x2 2 1 [0 0] [13 4]] (REQUEST)
D 0.007963209 _18_ MAC  COL 0 AODV 106 [0 ffffffff 2f 800] [energy 89.997485 ei 0.001 es 0.000 et 0.000 er 0.001] ------- [47:255 -1:255 29 0] [0x2 2 1 [0 0] [13 4]] (REQUEST)
D 0.007963227 _51_ MAC  COL 0 AODV 106 [0 ffffffff d 800] [energy 89.997485 ei 0.001 es 0.000 et 0.000 er 0.001] ------- [13:255 -1:255 30 0] [0x2 1 3 [2 0] [13 8]] (REQUEST)
D 0.007963239 _22_ MAC  COL 0 AODV 106 [0 ffffffff 2f 800] [energy 89.997485 ei 0.001 es 0.000 et 0.000 er 0.001] ------- [47:255 -1:255 29 0] [0x2 2 1 [0 0] [13 4]] (REQUEST)
D 0.007963347 _31_ MAC  COL 0 AODV 106 [0 ffffffff 2f 800] [energy 89.995789 ei 0.001 es 0.000 et 0.002 er 0.001] ------- [47:255 -1:255 29 0] [0x2 2 1 [0 0] [13 4]] (REQUEST)
D 0.007963659 _8_ MAC  COL 0 AODV 106 [0 ffffffff d 800] [energy 89.997485 ei 0.001 es 0.000 et 0.000 er 0.001] ------- [13:255 -1:255 30 0] [0x2 1 3 [2 0] [13 8]] (REQUEST)
D 0.007963695 _36_ MAC  COL 0 AODV 106 [0 ffffffff d 800] [energy 89.997485 ei 0.001 es 0.000 et 0.000 er 0.001] ------- [13:255 -1:255 30 0] [0x2 1 3 [2 0] [13 8]] (REQUEST)
D 0.007963774 _4_ MAC  COL 0 AODV 106 [0 ffffffff d 800] [energy 89.997485 ei 0.001 es 0.000 et 0.000 er 0.001] ------- [13:255 -1:255 30 0] [0x2 1 3 [2 0] [13 8]] (REQUEST)
D 0.008811037 _39_ MAC  COL 0 AODV 106 [0 ffffffff d 800] [energy 89.997485 ei 0.001 es 0.000 et 0.000 er 0.001] ------- [13:255 -1:255 30 0] [0x2 1 3 [2 0] [13 8]] (REQUEST)
D 0.008811130 _52_ MAC  COL 0 AODV 106 [0 ffffffff d 800] [energy 89.997485 ei 0.001 es 0.000 et 0.000 er 0.001] ------- [13:255 -1:255 30 0] [0x2 1 3 [2 0] [13 8]] (REQUEST)
D 0.008811155 _23_ MAC  COL 0 AODV 106 [0 ffffffff d 800] [energy 89.997485 ei 0.001 es 0.000 et 0.000 er 0.001] ------- [13:255 -1:255 30 0] [0x2 1 3 [2 0] [13 8]] (REQUEST)
D 0.008811174 _48_ MAC  COL 0 AODV 106 [0 ffffffff d 800] [energy 89.997485 ei 0.001 es 0.000 et 0.000 er 0.001] ------- [13:255 -1:255 30 0] [0x2 1 3 [2 0] [13 8]] (REQUEST)
D 0.008811181 _45_ MAC  COL 0 AODV 106 [0 ffffffff d 800] [energy 89.997486 ei 0.001 es 0.000 et 0.000 er 0.001] ------- [13:255 -1:255 30 0] [0x2 1 3 [2 0] [13 8]] (REQUEST)
D 0.008811195 _12_ MAC  COL 0 AODV 106 [0 ffffffff d 800] [energy 89.997485 ei 0.001 es 0.000 et 0.000 er 0.001] ------- [13:255 -1:255 30 0] [0x2 1 3 [2 0] [13 8]] (REQUEST)
D 0.008811209 _18_ MAC  COL 0 AODV 106 [0 ffffffff d 800] [energy 89.997485 ei 0.001 es 0.000 et 0.000 er 0.001] ------- [13:255 -1:255 30 0] [0x2 1 3 [2 0] [13 8]] (REQUEST)
D 0.008811227 _51_ MAC  COL 0 AODV 106 [0 ffffffff 2f 800] [energy 89.997485 ei 0.001 es 0.000 et 0.000 er 0.001] ------- [47:255 -1:255 29 0] [0x2 2 1 [0 0] [13 4]] (REQUEST)
D 0.008811239 _22_ MAC  COL 0 AODV 106 [0 ffffffff d 800] [energy 89.997485 ei 0.001 es 0.000 et 0.000 er 0.001] ------- [13:255 -1:255 30 0] [0x2 1 3 [2 0] [13 8]] (REQUEST)
D 0.008811347 _31_ MAC  COL 0 AODV 106 [0 ffffffff d 800] [energy 89.995789 ei 0.001 es 0.000 et 0.002 er 0.001] ------- [13:255 -1:255 30 0] [0x2 1 3 [2 0] [13 8]] (REQUEST)
D 0.011063335 _23_ MAC  COL 0 AODV 106 [0 ffffffff 2c 800] [energy 89.996484 ei 0.002 es 0.000 et 0.000 er 0.002] ------- [44:255 -1:255 29 0] [0x2 2 1 [0 0] [13 4]] (REQUEST)
D 0.011063350 _52_ MAC  COL 0 AODV 106 [0 ffffffff 2c 800] [energy 89.996484 ei 0.002 es 0.000 et 0.000 er 0.002] ------- [44:255 -1:255 29 0] [0x2 2 1 [0 0] [13 4]] (REQUEST)
D 0.011063384 _30_ MAC  COL 0 AODV 106 [0 ffffffff 2c 800] [energy 89.996484 ei 0.002 es 0.000 et 0.000 er 0.002] ------- [44:255 -1:255 29 0] [0x2 2 1 [0 0] [13 4]] (REQUEST)
D 0.011063391 _27_ MAC  COL 0 AODV 106 [0 ffffffff 2c 800] [energy 89.996484 ei 0.002 es 0.000 et 0.000 er 0.002] ------- [44:255 -1:255 29 0] [0x2 2 1 [0 0] [13 4]] (REQUEST)
D 0.011063410 _28_ MAC  COL 0 AODV 106 [0 ffffffff 2c 800] [energy 89.996484 ei 0.002 es 0.000 et 0.000 er 0.002] ------- [44:255 -1:255 29 0] [0x2 2 1 [0 0] [13 4]] (REQUEST)
D 0.011063456 _48_ MAC  COL 0 AODV 106 [0 ffffffff 2c 800] [energy 89.996484 ei 0.002 es 0.000 et 0.000 er 0.002] ------- [44:255 -1:255 29 0] [0x2 2 1 [0 0] [13 4]] (REQUEST)
D 0.011063532 _13_ MAC  COL 0 AODV 106 [0 ffffffff 2c 800] [energy 89.993941 ei 0.002 es 0.000 et 0.003 er 0.001] ------- [44:255 -1:255 29 0] [0x2 2 1 [0 0] [13 4]] (REQUEST)
D 0.011063535 _37_ MAC  COL 0 AODV 106 [0 ffffffff 2c 800] [energy 89.996484 ei 0.002 es 0.000 et 0.000 er 0.002] ------- [44:255 -1:255 29 0] [0x2 2 1 [0 0] [13 4]] (REQUEST)
D 0.011063584 _3_ MAC  COL 0 AODV 106 [0 ffffffff 2c 800] [energy 89.996484 ei 0.002 es 0.000 et 0.000 er 0.002] ------- [44:255 -1:255 29 0] [0x2 2 1 [0 0] [13 4]] (REQUEST)
D 0.011063592 _7_ MAC  COL 0 AODV 106 [0 ffffffff 2c 800] [energy 89.996484 ei 0.002 es 0.000 et 0.000 er 0.002] ------- [44:255 -1:255 29 0] [0x2 2 1 [0 0] [13 4]] (REQUEST)
D 0.011063643 _25_ MAC  COL 0 AODV 106 [0 ffffffff 2c 800] [energy 89.995637 ei 0.002 es 0.000 et 0.001 er 0.002] ------- [44:255 -1:255 29 0] [0x2 2 1 [0 0] [13 4]] (REQUEST)
D 0.011063652 _50_ MAC  COL 0 AODV 106 [0 ffffffff 2c 800] [energy 89.996484 ei 0.002 es 0.000 et 0.000 er 0.002] ------- [44:255 -1:255 29 0] [0x2 2 1 [0 0] [13 4]] (REQUEST)
D 0.011063661 _53_ MAC  COL 0 AODV 106 [0 ffffffff 16 800] [energy 89.996484 ei 0.002 es 0.000 et 0.000 er 0.002] ------- [22:255 -1:255 29 0] [0x2 2 1 [0 0] [13 4]] (REQUEST)
D 0.011063663 _16_ MAC  COL 0 AODV 106 [0 ffffffff 2c 800] [energy 89.996484 ei 0.002 es 0.000 et 0.000 er 0.002] ------- [44:255 -1:255 29 0] [0x2 2 1 [0 0] [13 4]] (REQUEST)
D 0.011063670 _40_ MAC  COL 0 AODV 106 [0 ffffffff 2c 800] [energy 89.996484 ei 0.002 es 0.000 et 0.000 er 0.002] ------- [44:255 -1:255 29 0] [0x2 2 1 [0 0] [13 4]] (REQUEST)
D 0.011063680 _46_ MAC  COL 0 AODV 106 [0 ffffffff 2c 800] [energy 89.996485 ei 0.002 es 0.000 et 0.000 er 0.002] ------- [44:255 -1:255 29 0] [0x2 2 1 [0 0] [13 4]] (REQUEST)
D 0.011063777 _11_ MAC  COL 0 AODV 106 [0 ffffffff 2c 800] [energy 89.995636 ei 0.002 es 0.000 et 0.001 er 0.002] ------- [44:255 -1:255 29 0] [0x2 2 1 [0 0] [13 4]] (REQUEST)
D 0.011063790 _8_ MAC  COL 0 AODV 106 [0 ffffffff 16 800] [energy 89.996484 ei 0.002 es 0.000 et 0.000 er 0.002] ------- [22:255 -1:255 29 0] [0x2 2 1 [0 0] [13 4]] (REQUEST)
D 0.011063966 _29_ MAC  COL 0 AODV 106 [0 ffffffff 2c 800] [energy 89.996484 ei 0.002 es 0.000 et 0.000 er 0.002] ------- [44:255 -1:255 29 0] [0x2 2 1 [0 0] [13 4]] (REQUEST)
D 0.011063974 _20_ MAC  COL 0 AODV 106 [0 ffffffff 2c 800] [energy 89.996484 ei 0.002 es 0.000 et 0.000 er 0.002] ------- [44:255 -1:255 29 0] [0x2 2 1 [0 0] [13 4]] (REQUEST)
D 0.011063985 _10_ MAC  COL 0 AODV 106 [0 ffffffff 16 800] [energy 89.996483 ei 0.002 es 0.000 et 0.000 er 0.002] ------- [22:255 -1:255 29 0] [0x2 2 1 [0 0] [13 4]] (REQUEST)
D 0.011064041 _15_ MAC  COL 0 AODV 106 [0 ffffffff 2c 800] [energy 89.996484 ei 0.002 es 0.000 et 0.000 er 0.002] ------- [44:255 -1:255 29 0] [0x2 2 1 [0 0] [13 4]] (REQUEST)
D 0.011064061 _0_ MAC  COL 0 AODV 106 [0 ffffffff 2c 800] [energy 89.996484 ei 0.002 es 0.000 et 0.000 er 0.002] ------- [44:255 -1:255 29 0] [0x2 2 1 [0 0] [13 4]] (REQUEST)
D 0.011911335 _23_ MAC  COL 0 AODV 106 [0 ffffffff 16 800] [energy 89.996484 ei 0.002 es 0.000 et 0.000 er 0.002] ------- [22:255 -1:255 29 0] [0x2 2 1 [0 0] [13 4]] (REQUEST)
D 0.011911350 _52_ MAC  COL 0 AODV 106 [0 ffffffff 16 800] [energy 89.996484 ei 0.002 es 0.000 et 0.000 er 0.002] ------- [22:255 -1:255 29 0] [0x2 2 1 [0 0] [13 4]] (REQUEST)
D 0.011911384 _30_ MAC  COL 0 AODV 106 [0 ffffffff 16 800] [energy 89.996484 ei 0.002 es 0.000 et 0.000 er 0.002] ------- [22:255 -1:255 29 0] [0x2 2 1 [0 0] [13 4]] (REQUEST)
D 0.011911391 _27_ MAC  COL 0 AODV 106 [0 ffffffff 16 800] [energy 89.996484 ei 0.002 es 0.000 et 0.000 er 0.002] ------- [22:255 -1:255 29 0] [0x2 2 1 [0 0] [13 4]] (REQUEST)
D 0.011911410 _28_ MAC  COL 0 AODV 106 [0 ffffffff 16 800] [energy 89.996484 ei 0.002 es 0.000 et 0.000 er 0.002] ------- [22:255 -1:255 29 0] [0x2 2 1 [0 0] [13 4]] (REQUEST)
D 0.011911456 _48_ MAC  COL 0 AODV 106 [0 ffffffff 16 800] [energy 89.996484 ei 0.002 es 0.000 et 0.000 er 0.002] ------- [22:255 -1:255 29 0] [0x2 2 1 [0 0] [13 4]] (REQUEST)
D 0.011911532 _13_ MAC  COL 0 AODV 106 [0 ffffffff 16 800] [energy 89.993941 ei 0.002 es 0.000 et 0.003 er 0.001] ------- [22:255 -1:255 29 0] [0x2 2 1 [0 0] [13 4]] (REQUEST)
D 0.011911535 _37_ MAC  COL 0 AODV 106 [0 ffffffff 16 800] [energy 89.996484 ei 0.002 es 0.000 et 0.000 er 0.002] ------- [22:255 -1:255 29 0] [0x2 2 1 [0 0] [13 4]] (REQUEST)
D 0.011911551 _1_ MAC  COL 0 AODV 106 [0 ffffffff 16 800] [energy 89.996484 ei 0.002 es 0.000 et 0.000 er 0.002] ------- [22:255 -1:255 29 0] [0x2 2 1 [0 0] [13 4]] (REQUEST)
D 0.011911584 _3_ MAC  COL 0 AODV 106 [0 ffffffff 16 800] [energy 89.996484 ei 0.002 es 0.000 et 0.000 er 0.002] ------- [22:255 -1:255 29 0] [0x2 2 1 [0 0] [13 4]] (REQUEST)
D 0.011911592 _7_ MAC  COL 0 AODV 106 [0 ffffffff 16 800] [energy 89.996484 ei 0.002 es 0.000 et 0.000 er 0.002] ------- [22:255 -1:255 29 0] [0x2 2 1 [0 0] [13 4]] (REQUEST)
D 0.011911643 _25_ MAC  COL 0 AODV 106 [0 ffffffff 16 800] [energy 89.995637 ei 0.002 es 0.000 et 0.001 er 0.002] ------- [22:255 -1:255 29 0] [0x2 2 1 [0 0] [13 4]] (REQUEST)
D 0.011911652 _50_ MAC  COL 0 AODV 106 [0 ffffffff 16 800] [energy 89.996484 ei 0.002 es 0.000 et 0.000 er 0.002] ------- [22:255 -1:255 29 0] [0x2 2 1 [0 0] [13 4]] (REQUEST)
D 0.011911663 _16_ MAC  COL 0 AODV 106 [0 ffffffff 16 800] [energy 89.996484 ei 0.002 es 0.000 et 0.000 er 0.002] ------- [22:255 -1:255 29 0] [0x2 2 1 [0 0] [13 4]] (REQUEST)
D 0.011911670 _40_ MAC  COL 0 AODV 106 [0 ffffffff 16 800] [energy 89.996484 ei 0.002 es 0.000 et 0.000 er 0.002] ------- [22:255 -1:255 29 0] [0x2 2 1 [0 0] [13 4]] (REQUEST)
D 0.011911680 _46_ MAC  COL 0 AODV 106 [0 ffffffff 16 800] [energy 89.996485 ei 0.002 es 0.000 et 0.000 er 0.002] ------- [22:255 -1:255 29 0] [0x2 2 1 [0 0] [13 4]] (REQUEST)
D 0.011911777 _11_ MAC  COL 0 AODV 106 [0 ffffffff 16 800] [energy 89.995636 ei 0.002 es 0.000 et 0.001 er 0.002] ------- [22:255 -1:255 29 0] [0x2 2 1 [0 0] [13 4]] (REQUEST)
D 0.011911787 _6_ MAC  COL 0 AODV 106 [0 ffffffff 16 800] [energy 89.996484 ei 0.002 es 0.000 et 0.000 er 0.002] ------- [22:255 -1:255 29 0] [0x2 2 1 [0 0] [13 4]] (REQUEST)
D 0.012346161 _21_ MAC  COL 0 AODV 106 [0 ffffffff 1e 800] [energy 89.995902 ei 0.002 es 0.000 et 0.000 er 0.002] ------- [30:255 -1:255 29 0] [0x2 2 4 [5 0] [13 10]] (REQUEST)
D 0.012346264 _51_ MAC  COL 0 AODV 106 [0 ffffffff 1e 800] [energy 89.995054 ei 0.002 es 0.000 et 0.001 er 0.002] ------- [30:255 -1:255 29 0] [0x2 2 4 [5 0] [13 10]] (REQUEST)
D 0.012346279 _5_ MAC  COL 0 AODV 106 [0 ffffffff 1e 800] [energy 89.995902 ei 0.002 es 0.000 et 0.000 er 0.002] ------- [30:255 -1:255 29 0] [0x2 2 4 [5 0] [13 10]] (REQUEST)
D 0.012346295 _19_ MAC  COL 0 AODV 106 [0 ffffffff 1e 800] [energy 89.995902 ei 0.002 es 0.000 et 0.000 er 0.002] ------- [30:255 -1:255 29 0] [0x2 2 4 [5 0] [13 10]] (REQUEST)
D 0.012346308 _17_ MAC  COL 0 AODV 106 [0 ffffffff 1e 800] [energy 89.995902 ei 0.002 es 0.000 et 0.000 er 0.002] ------- [30:255 -1:255 29 0] [0x2 2 4 [5 0] [13 10]] (REQUEST)
D 0.012346315 _25_ MAC  COL 0 AODV 106 [0 ffffffff 1e 800] [energy 89.995054 ei 0.002 es 0.000 et 0.001 er 0.002] ------- [30:255 -1:255 29 0] [0x2 2 4 [5 0] [13 10]] (REQUEST)
D 0.012346317 _46_ MAC  COL 0 AODV 106 [0 ffffffff 1e 800] [energy 89.995902 ei 0.002 es 0.000 et 0.000 er 0.002] ------- [30:255 -1:255 29 0] [0x2 2 4 [5 0] [13 10]] (REQUEST)
D 0.012346329 _37_ MAC  COL 0 AODV 106 [0 ffffffff 1e 800] [energy 89.995901 ei 0.002 es 0.000 et 0.000 er 0.002] ------- [30:255 -1:255 29 0] [0x2 2 4 [5 0] [13 10]] (REQUEST)
D 0.012346421 _11_ MAC  COL 0 AODV 106 [0 ffffffff 1e 800] [energy 89.995054 ei 0.002 es 0.000 et 0.001 er 0.002] ------- [30:255 -1:255 29 0] [0x2 2 4 [5 0] [13 10]] (REQUEST)
D 0.012346455 _20_ MAC  COL 0 AODV 106 [0 ffffffff 1e 800] [energy 89.995902 ei 0.002 es 0.000 et 0.000 er 0.002] ------- [30:255 -1:255 29 0] [0x2 2 4 [5 0] [13 10]] (REQUEST)
D 0.012346552 _29_ MAC  COL 0 AODV 106 [0 ffffffff 1e 800] [energy 89.995902 ei 0.002 es 0.000 et 0.000 er 0.002] ------- [30:255 -1:255 29 0] [0x2 2 4 [5 0] [13 10]] (REQUEST)
D 0.012346574 _48_ MAC  COL 0 AODV 106 [0 ffffffff 1e 800] [energy 89.995901 ei 0.002 es 0.000 et 0.000 er 0.002] ------- [30:255 -1:255 29 0] [0x2 2 4 [5 0] [13 10]] (REQUEST)
D 0.012346598 _15_ MAC  COL 0 AODV 106 [0 ffffffff 1e 800] [energy 89.995902 ei 0.002 es 0.000 et 0.000 er 0.002] ------- [30:255 -1:255 29 0] [0x2 2 4 [5 0] [13 10]] (REQUEST)
D 0.012346600 _52_ MAC  COL 0 AODV 106 [0 ffffffff 1e 800] [energy 89.995901 ei 0.002 es 0.000 et 0.000 er 0.002] ------- [30:255 -1:255 29 0] [0x2 2 4 [5 0] [13 10]] (REQUEST)
D 0.012346635 _0_ MAC  COL 0 AODV 106 [0 ffffffff 1e 800] [energy 89.995902 ei 0.002 es 0.000 et 0.000 er 0.002] ------- [30:255 -1:255 29 0] [0x2 2 4 [5 0] [13 10]] (REQUEST)
D 0.012346639 _40_ MAC  COL 0 AODV 106 [0 ffffffff 1e 800] [energy 89.995902 ei 0.002 es 0.000 et 0.000 er 0.002] ------- [30:255 -1:255 29 0] [0x2 2 4 [5 0] [13 10]] (REQUEST)
D 0.012346641 _45_ MAC  COL 0 AODV 106 [0 ffffffff 1e 800] [energy 89.995901 ei 0.002 es 0.000 et 0.000 er 0.002] ------- [30:255 -1:255 29 0] [0x2 2 4 [5 0] [13 10]] (REQUEST)
D 0.012346642 _16_ MAC  COL 0 AODV 106 [0 ffffffff 1e 800] [energy 89.995902 ei 0.002 es 0.000 et 0.000 er 0.002] ------- [30:255 -1:255 29 0] [0x2 2 4 [5 0] [13 10]] (REQUEST)
D 0.012346699 _6_ MAC  COL 0 AODV 106 [0 ffffffff 1e 800] [energy 89.995901 ei 0.002 es 0.000 et 0.000 er 0.002] ------- [30:255 -1:255 29 0] [0x2 2 4 [5 0] [13 10]] (REQUEST)
D 0.012346708 _42_ MAC  COL 0 AODV 106 [0 ffffffff 1e 800] [energy 89.995901 ei 0.002 es 0.000 et 0.000 er 0.002] ------- [30:255 -1:255 29 0] [0x2 2 4 [5 0] [13 10]] (REQUEST)
D 0.012346736 _38_ MAC  COL 0 AODV 106 [0 ffffffff 1e 800] [energy 89.995902 ei 0.002 es 0.000 et 0.000 er 0.002] ------- [30:255 -1:255 29 0] [0x2 2 4 [5 0] [13 10]] (REQUEST)
D 0.012346779 _32_ MAC  COL 0 AODV 106 [0 ffffffff 1e 800] [energy 89.995053 ei 0.002 es 0.000 et 0.001 er 0.002] ------- [30:255 -1:255 29 0] [0x2 2 4 [5 0] [13 10]] (REQUEST)
D 0.012346923 _53_ MAC  COL 0 AODV 106 [0 ffffffff 1e 800] [energy 89.995901 ei 0.002 es 0.000 et 0.000 er 0.002] ------- [30:255 -1:255 29 0] [0x2 2 4 [5 0] [13 10]] (REQUEST)
D 0.012346990 _34_ MAC  COL 0 AODV 106 [0 ffffffff 1e 800] [energy 89.995054 ei 0.002 es 0.000 et 0.001 er 0.002] ------- [30:255 -1:255 29 0] [0x2 2 4 [5 0] [13 10]] (REQUEST)
D 0.012347028 _41_ MAC  COL 0 AODV 106 [0 ffffffff 1e 800] [energy 89.995901 ei 0.002 es 0.000 et 0.000 er 0.002] ------- [30:255 -1:255 29 0] [0x2 2 4 [5 0] [13 10]] (REQUEST)
D 0.012347034 _8_ MAC  COL 0 AODV 106 [0 ffffffff 1e 800] [energy 89.995901 ei 0.002 es 0.000 et 0.000 er 0.002] ------- [30:255 -1:255 29 0] [0x2 2 4 [5 0] [13 10]] (REQUEST)
D 0.012347175 _14_ MAC  COL 0 AODV 106 [0 ffffffff 1e 800] [energy 89.995901 ei 0.002 es 0.000 et 0.000 er 0.002] ------- [30:255 -1:255 29 0] [0x2 2 4 [5 0] [13 10]] (REQUEST)
D 0.012347191 _49_ MAC  COL 0 AODV 106 [0 ffffffff 1e 800] [energy 89.995901 ei 0.002 es 0.000 et 0.000 er 0.002] ------- [30:255 -1:255 29 0] [0x2 2 4 [5 0] [13 10]] (REQUEST)
D 0.013194161 _21_ MAC  COL 0 AODV 106 [0 ffffffff 2c 800] [energy 89.995902 ei 0.002 es 0.000 et 0.000 er 0.002] ------- [44:255 -1:255 29 0] [0x2 2 4 [5 0] [13 10]] (REQUEST)
D 0.013194257 _36_ MAC  COL 0 AODV 106 [0 ffffffff 2c 800] [energy 89.995902 ei 0.002 es 0.000 et 0.000 er 0.002] ------- [44:255 -1:255 29 0] [0x2 2 4 [5 0] [13 10]] (REQUEST)
D 0.013194264 _51_ MAC  COL 0 AODV 106 [0 ffffffff 2c 800] [energy 89.995054 ei 0.002 es 0.000 et 0.001 er 0.002] ------- [44:255 -1:255 29 0] [0x2 2 4 [5 0] [13 10]] (REQUEST)
D 0.013194279 _5_ MAC  COL 0 AODV 106 [0 ffffffff 2c 800] [energy 89.995902 ei 0.002 es 0.000 et 0.000 er 0.002] ------- [44:255 -1:255 29 0] [0x2 2 4 [5 0] [13 10]] (REQUEST)
D 0.013194295 _19_ MAC  COL 0 AODV 106 [0 ffffffff 2c 800] [energy 89.995902 ei 0.002 es 0.000 et 0.000 er 0.002] ------- [44:255 -1:255 29 0] [0x2 2 4 [5 0] [13 10]] (REQUEST)
D 0.013194308 _17_ MAC  COL 0 AODV 106 [0 ffffffff 2c 800] [energy 89.995902 ei 0.002 es 0.000 et 0.000 er 0.002] ------- [44:255 -1:255 29 0] [0x2 2 4 [5 0] [13 10]] (REQUEST)
D 0.013194315 _25_ MAC  COL 0 AODV 106 [0 ffffffff 2c 800] [energy 89.995054 ei 0.002 es 0.000 et 0.001 er 0.002] ------- [44:255 -1:255 29 0] [0x2 2 4 [5 0] [13 10]] (REQUEST)
D 0.013194317 _46_ MAC  COL 0 AODV 106 [0 ffffffff 2c 800] [energy 89.995902 ei 0.002 es 0.000 et 0.000 er 0.002] ------- [44:255 -1:255 29 0] [0x2 2 4 [5 0] [13 10]] (REQUEST)
D 0.013194329 _37_ MAC  COL 0 AODV 106 [0 ffffffff 2c 800] [energy 89.995901 ei 0.002 es 0.000 et 0.000 er 0.002] ------- [44:255 -1:255 29 0] [0x2 2 4 [5 0] [13 10]] (REQUEST)
D 0.013194421 _11_ MAC  COL 0 AODV 106 [0 ffffffff 2c 800] [energy 89.995054 ei 0.002 es 0.000 et 0.001 er 0.002] ------- [44:255 -1:255 29 0] [0x2 2 4 [5 0] [13 10]] (REQUEST)
D 0.013194455 _20_ MAC  COL 0 AODV 106 [0 ffffffff 2c 800] [energy 89.995902 ei 0.002 es 0.000 et 0.000 er 0.002] ------- [44:255 -1:255 29 0] [0x2 2 4 [5 0] [13 10]] (REQUEST)
D 0.013194552 _29_ MAC  COL 0 AODV 106 [0 ffffffff 2c 800] [energy 89.995902 ei 0.002 es 0.000 et 0.000 er 0.002] ------- [44:255 -1:255 29 0] [0x2 2 4 [5 0] [13 10]] (REQUEST)
D 0.013194574 _48_ MAC  COL 0 AODV 106 [0 ffffffff 2c 800] [energy 89.995901 ei 0.002 es 0.000 et 0.000 er 0.002] ------- [44:255 -1:255 29 0] [0x2 2 4 [5 0] [13 10]] (REQUEST)
D 0.013194598 _15_ MAC  COL 0 AODV 106 [0 ffffffff 2c 800] [energy 89.995902 ei 0.002 es 0.000 et 0.000 er 0.002] ------- [44:255 -1:255 29 0] [0x2 2 4 [5 0] [13 10]] (REQUEST)
D 0.013194600 _52_ MAC  COL 0 AODV 106 [0 ffffffff 2c 800] [energy 89.995901 ei 0.002 es 0.000 et 0.000 er 0.002] ------- [44:255 -1:255 29 0] [0x2 2 4 [5 0] [13 10]] (REQUEST)
D 0.013194635 _0_ MAC  COL 0 AODV 106 [0 ffffffff 2c 800] [energy 89.995902 ei 0.002 es 0.000 et 0.000 er 0.002] ------- [44:255 -1:255 29 0] [0x2 2 4 [5 0] [13 10]] (REQUEST)
D 0.013194639 _40_ MAC  COL 0 AODV 106 [0 ffffffff 2c 800] [energy 89.995902 ei 0.002 es 0.000 et 0.000 er 0.002] ------- [44:255 -1:255 29 0] [0x2 2 4 [5 0] [13 10]] (REQUEST)
D 0.013194641 _45_ MAC  COL 0 AODV 106 [0 ffffffff 2c 800] [energy 89.995901 ei 0.002 es 0.000 et 0.000 er 0.002] ------- [44:255 -1:255 29 0] [0x2 2 4 [5 0] [13 10]] (REQUEST)
D 0.013194642 _16_ MAC  COL 0 AODV 106 [0 ffffffff 2c 800] [energy 89.995902 ei 0.002 es 0.000 et 0.000 er 0.002] ------- [44:255 -1:255 29 0] [0x2 2 4 [5 0] [13 10]] (REQUEST)
D 0.013194699 _6_ MAC  COL 0 AODV 106 [0 ffffffff 2c 800] [energy 89.995901 ei 0.002 es 0.000 et 0.000 er 0.002] ------- [44:255 -1:255 29 0] [0x2 2 4 [5 0] [13 10]] (REQUEST)
D 0.013194708 _42_ MAC  COL 0 AODV 106 [0 ffffffff 2c 800] [energy 89.995901 ei 0.002 es 0.000 et 0.000 er 0.002] ------- [44:255 -1:255 29 0] [0x2 2 4 [5 0] [13 10]] (REQUEST)
D 0.013629020 _23_ MAC  COL 0 AODV 106 [0 ffffffff 2a 800] [energy 89.995318 ei 0.003 es 0.000 et 0.000 er 0.002] ------- [42:255 -1:255 29 0] [0x2 2 4 [5 0] [13 10]] (REQUEST)
D 0.013629045 _22_ MAC  COL 0 AODV 106 [0 ffffffff 7 800] [energy 89.994471 ei 0.003 es 0.000 et 0.001 er 0.002] ------- [7:255 -1:255 28 0] [0x2 3 1 [0 0] [13 4]] (REQUEST)
D 0.013629099 _37_ MAC  COL 0 AODV 106 [0 ffffffff 2a 800] [energy 89.995318 ei 0.003 es 0.000 et 0.000 er 0.002] ------- [42:255 -1:255 29 0] [0x2 2 4 [5 0] [13 10]] (REQUEST)
D 0.013629136 _53_ MAC  COL 0 AODV 106 [0 ffffffff 7 800] [energy 89.995319 ei 0.003 es 0.000 et 0.000 er 0.002] ------- [7:255 -1:255 28 0] [0x2 3 1 [0 0] [13 4]] (REQUEST)
D 0.013629187 _26_ MAC  COL 0 AODV 106 [0 ffffffff 7 800] [energy 89.994471 ei 0.003 es 0.000 et 0.001 er 0.002] ------- [7:255 -1:255 28 0] [0x2 3 1 [0 0] [13 4]] (REQUEST)
D 0.013629207 _51_ MAC  COL 0 AODV 106 [0 ffffffff 2a 800] [energy 89.994470 ei 0.003 es 0.000 et 0.001 er 0.002] ------- [42:255 -1:255 29 0] [0x2 2 4 [5 0] [13 10]] (REQUEST)
D 0.013629218 _10_ MAC  COL 0 AODV 106 [0 ffffffff 7 800] [energy 89.995318 ei 0.003 es 0.000 et 0.000 er 0.002] ------- [7:255 -1:255 28 0] [0x2 3 1 [0 0] [13 4]] (REQUEST)
D 0.013629329 _33_ MAC  COL 0 AODV 106 [0 ffffffff 7 800] [energy 89.995318 ei 0.003 es 0.000 et 0.000 er 0.002] ------- [7:255 -1:255 28 0] [0x2 3 1 [0 0] [13 4]] (REQUEST)
D 0.013629329 _41_ MAC  COL 0 AODV 106 [0 ffffffff 7 800] [energy 89.995318 ei 0.003 es 0.000 et 0.000 er 0.002] ------- [7:255 -1:255 28 0] [0x2 3 1 [0 0] [13 4]] (REQUEST)
D 0.013629347 _18_ MAC  COL 0 AODV 106 [0 ffffffff 7 800] [energy 89.995319 ei 0.003 es 0.000 et 0.000 er 0.002] ------- [7:255 -1:255 28 0] [0x2 3 1 [0 0] [13 4]] (REQUEST)
D 0.013629355 _1_ MAC  COL 0 AODV 106 [0 ffffffff 7 800] [energy 89.995319 ei 0.003 es 0.000 et 0.000 er 0.002] ------- [7:255 -1:255 28 0] [0x2 3 1 [0 0] [13 4]] (REQUEST)
D 0.013629387 _28_ MAC  COL 0 AODV 106 [0 ffffffff 7 800] [energy 89.995319 ei 0.003 es 0.000 et 0.000 er 0.002] ------- [7:255 -1:255 28 0] [0x2 3 1 [0 0] [13 4]] (REQUEST)
D 0.013629405 _3_ MAC  COL 0 AODV 106 [0 ffffffff 7 800] [energy 89.995319 ei 0.003 es 0.000 et 0.000 er 0.002] ------- [7:255 -1:255 28 0] [0x2 3 1 [0 0] [13 4]] (REQUEST)
D 0.013629426 _40_ MAC  COL 0 AODV 106 [0 ffffffff 7 800] [energy 89.995319 ei 0.003 es 0.000 et 0.000 er 0.002] ------- [7:255 -1:255 28 0] [0x2 3 1 [0 0] [13 4]] (REQUEST)
D 0.013629429 _16_ MAC  COL 0 AODV 106 [0 ffffffff 7 800] [energy 89.995319 ei 0.003 es 0.000 et 0.000 er 0.002] ------- [7:255 -1:255 28 0] [0x2 3 1 [0 0] [13 4]] (REQUEST)
D 0.013629449 _14_ MAC  COL 0 AODV 106 [0 ffffffff 7 800] [energy 89.995318 ei 0.003 es 0.000 et 0.000 er 0.002] ------- [7:255 -1:255 28 0] [0x2 3 1 [0 0] [13 4]] (REQUEST)
D 0.013629481 _6_ MAC  COL 0 AODV 106 [0 ffffffff 7 800] [energy 89.995319 ei 0.003 es 0.000 et 0.000 er 0.002] ------- [7:255 -1:255 28 0] [0x2 3 1 [0 0] [13 4]] (REQUEST)
D 0.013629490 _49_ MAC  COL 0 AODV 106 [0 ffffffff 7 800] [energy 89.995318 ei 0.003 es 0.000 et 0.000 er 0.002] ------- [7:255 -1:255 28 0] [0x2 3 1 [0 0] [13 4]] (REQUEST)
D 0.013629518 _18_ MAC  COL 0 AODV 106 [0 ffffffff 2a 800] [energy 89.995319 ei 0.003 es 0.000 et 0.000 er 0.002] ------- [42:255 -1:255 29 0] [0x2 2 4 [5 0] [13 10]] (REQUEST)
D 0.013629531 _44_ MAC  COL 0 AODV 106 [0 ffffffff 7 800] [energy 89.993623 ei 0.003 es 0.000 et 0.002 er 0.002] ------- [7:255 -1:255 28 0] [0x2 3 1 [0 0] [13 4]] (REQUEST)
D 0.013629558 _38_ MAC  COL 0 AODV 106 [0 ffffffff 7 800] [energy 89.995319 ei 0.003 es 0.000 et 0.000 er 0.002] ------- [7:255 -1:255 28 0] [0x2 3 1 [0 0] [13 4]] (REQUEST)
D 0.013629669 _26_ MAC  COL 0 AODV 106 [0 ffffffff 2a 800] [energy 89.994471 ei 0.003 es 0.000 et 0.001 er 0.002] ------- [42:255 -1:255 29 0] [0x2 2 4 [5 0] [13 10]] (REQUEST)
D 0.013629695 _0_ MAC  COL 0 AODV 106 [0 ffffffff 7 800] [energy 89.995319 ei 0.003 es 0.000 et 0.000 er 0.002] ------- [7:255 -1:255 28 0] [0x2 3 1 [0 0] [13 4]] (REQUEST)
D 0.013629728 _29_ MAC  COL 0 AODV 106 [0 ffffffff 7 800] [energy 89.995319 ei 0.003 es 0.000 et 0.000 er 0.002] ------- [7:255 -1:255 28 0] [0x2 3 1 [0 0] [13 4]] (REQUEST)
D 0.013629738 _35_ MAC  COL 0 AODV 106 [0 ffffffff 7 800] [energy 89.995319 ei 0.003 es 0.000 et 0.000 er 0.002] ------- [7:255 -1:255 28 0] [0x2 3 1 [0 0] [13 4]] (REQUEST)
D 0.013629760 _15_ MAC  COL 0 AODV 106 [0 ffffffff 7 800] [energy 89.995319 ei 0.003 es 0.000 et 0.000 er 0.002] ------- [7:255 -1:255 28 0] [0x2 3 1 [0 0] [13 4]] (REQUEST)
D 0.013629849 _19_ MAC  COL 0 AODV 106 [0 ffffffff 7 800] [energy 89.995319 ei 0.003 es 0.000 et 0.000 er 0.002] ------- [7:255 -1:255 28 0] [0x2 3 1 [0 0] [13 4]] (REQUEST)
D 0.013629863 _20_ MAC  COL 0 AODV 106 [0 ffffffff 7 800] [energy 89.995319 ei 0.003 es 0.000 et 0.000 er 0.002] ------- [7:255 -1:255 28 0] [0x2 3 1 [0 0] [13 4]] (REQUEST)
D 0.013629868 _29_ MAC  COL 0 AODV 106 [0 ffffffff 8 800] [energy 89.995319 ei 0.003 es 0.000 et 0.000 er 0.002] ------- [8:255 -1:255 28 0] [0x2 3 4 [5 0] [13 10]] (REQUEST)
D 0.013629895 _15_ MAC  COL 0 AODV 106 [0 ffffffff 8 800] [energy 89.995319 ei 0.003 es 0.000 et 0.000 er 0.002] ------- [8:255 -1:255 28 0] [0x2 3 4 [5 0] [13 10]] (REQUEST)
D 0.013629966 _5_ MAC  COL 0 AODV 106 [0 ffffffff 7 800] [energy 89.995319 ei 0.003 es 0.000 et 0.000 er 0.002] ------- [7:255 -1:255 28 0] [0x2 3 1 [0 0] [13 4]] (REQUEST)
D 0.013630165 _44_ MAC  COL 0 AODV 106 [0 ffffffff 2a 800] [energy 89.993623 ei 0.003 es 0.000 et 0.002 er 0.002] ------- [42:255 -1:255 29 0] [0x2 2 4 [5 0] [13 10]] (REQUEST)
D 0.013630225 _51_ MAC  COL 0 AODV 106 [0 ffffffff 7 800] [energy 89.994470 ei 0.003 es 0.000 et 0.001 er 0.002] ------- [7:255 -1:255 28 0] [0x2 3 1 [0 0] [13 4]] (REQUEST)
D 0.014477020 _23_ MAC  COL 0 AODV 106 [0 ffffffff 7 800] [energy 89.995318 ei 0.003 es 0.000 et 0.000 er 0.002] ------- [7:255 -1:255 28 0] [0x2 3 1 [0 0] [13 4]] (REQUEST)
D 0.014477045 _22_ MAC  COL 0 AODV 106 [0 ffffffff 2a 800] [energy 89.994471 ei 0.003 es 0.000 et 0.001 er 0.002] ------- [42:255 -1:255 29 0] [0x2 2 4 [5 0] [13 10]] (REQUEST)
D 0.014477099 _37_ MAC  COL 0 AODV 106 [0 ffffffff 7 800] [energy 89.995318 ei 0.003 es 0.000 et 0.000 er 0.002] ------- [7:255 -1:255 28 0] [0x2 3 1 [0 0] [13 4]] (REQUEST)
D 0.014477136 _53_ MAC  COL 0 AODV 106 [0 ffffffff 8 800] [energy 89.995318 ei 0.003 es 0.000 et 0.000 er 0.002] ------- [8:255 -1:255 28 0] [0x2 3 4 [5 0] [13 10]] (REQUEST)
D 0.014477218 _10_ MAC  COL 0 AODV 106 [0 ffffffff 8 800] [energy 89.995318 ei 0.003 es 0.000 et 0.000 er 0.002] ------- [8:255 -1:255 28 0] [0x2 3 4 [5 0] [13 10]] (REQUEST)
D 0.014477329 _33_ MAC  COL 0 AODV 106 [0 ffffffff 8 800] [energy 89.995318 ei 0.003 es 0.000 et 0.000 er 0.002] ------- [8:255 -1:255 28 0] [0x2 3 4 [5 0] [13 10]] (REQUEST)
D 0.014477329 _41_ MAC  COL 0 AODV 106 [0 ffffffff 8 800] [energy 89.995318 ei 0.003 es 0.000 et 0.000 er 0.002] ------- [8:255 -1:255 28 0] [0x2 3 4 [5 0] [13 10]] (REQUEST)
D 0.014477355 _1_ MAC  COL 0 AODV 106 [0 ffffffff 8 800] [energy 89.995319 ei 0.003 es 0.000 et 0.000 er 0.002] ------- [8:255 -1:255 28 0] [0x2 3 4 [5 0] [13 10]] (REQUEST)
D 0.014477387 _28_ MAC  COL 0 AODV 106 [0 ffffffff 8 800] [energy 89.995319 ei 0.003 es 0.000 et 0.000 er 0.002] ------- [8:255 -1:255 28 0] [0x2 3 4 [5 0] [13 10]] (REQUEST)
D 0.014477405 _3_ MAC  COL 0 AODV 106 [0 ffffffff 8 800] [energy 89.995319 ei 0.003 es 0.000 et 0.000 er 0.002] ------- [8:255 -1:255 28 0] [0x2 3 4 [5 0] [13 10]] (REQUEST)
D 0.014477426 _40_ MAC  COL 0 AODV 106 [0 ffffffff 8 800] [energy 89.995319 ei 0.003 es 0.000 et 0.000 er 0.002] ------- [8:255 -1:255 28 0] [0x2 3 4 [5 0] [13 10]] (REQUEST)
D 0.014477429 _16_ MAC  COL 0 AODV 106 [0 ffffffff 8 800] [energy 89.995319 ei 0.003 es 0.000 et 0.000 er 0.002] ------- [8:255 -1:255 28 0] [0x2 3 4 [5 0] [13 10]] (REQUEST)
D 0.014477449 _14_ MAC  COL 0 AODV 106 [0 ffffffff 8 800] [energy 89.995318 ei 0.003 es 0.000 et 0.000 er 0.002] ------- [8:255 -1:255 28 0] [0x2 3 4 [5 0] [13 10]] (REQUEST)
D 0.014477481 _6_ MAC  COL 0 AODV 106 [0 ffffffff 8 800] [energy 89.995319 ei 0.003 es 0.000 et 0.000 er 0.002] ------- [8:255 -1:255 28 0] [0x2 3 4 [5 0] [13 10]] (REQUEST)
D 0.014477490 _49_ MAC  COL 0 AODV 106 [0 ffffffff 8 800] [energy 89.995318 ei 0.003 es 0.000 et 0.000 er 0.002] ------- [8:255 -1:255 28 0] [0x2 3 4 [5 0] [13 10]] (REQUEST)
D 0.014477518 _18_ MAC  COL 0 AODV 106 [0 ffffffff 8 800] [energy 89.995319 ei 0.003 es 0.000 et 0.000 er 0.002] ------- [8:255 -1:255 28 0] [0x2 3 4 [5 0] [13 10]] (REQUEST)
D 0.014477558 _38_ MAC  COL 0 AODV 106 [0 ffffffff 8 800] [energy 89.995319 ei 0.003 es 0.000 et 0.000 er 0.002] ------- [8:255 -1:255 28 0] [0x2 3 4 [5 0] [13 10]] (REQUEST)
D 0.014477669 _26_ MAC  COL 0 AODV 106 [0 ffffffff 8 800] [energy 89.994471 ei 0.003 es 0.000 et 0.001 er 0.002] ------- [8:255 -1:255 28 0] [0x2 3 4 [5 0] [13 10]] (REQUEST)
D 0.014477695 _0_ MAC  COL 0 AODV 106 [0 ffffffff 8 800] [energy 89.995319 ei 0.003 es 0.000 et 0.000 er 0.002] ------- [8:255 -1:255 28 0] [0x2 3 4 [5 0] [13 10]] (REQUEST)
D 0.014477738 _35_ MAC  COL 0 AODV 106 [0 ffffffff 8 800] [energy 89.995319 ei 0.003 es 0.000 et 0.000 er 0.002] ------- [8:255 -1:255 28 0] [0x2 3 4 [5 0] [13 10]] (REQUEST)
D 0.014477846 _43_ MAC  COL 0 AODV 106 [0 ffffffff 8 800] [energy 89.995318 ei 0.003 es 0.000 et 0.000 er 0.002] ------- [8:255 -1:255 28 0] [0x2 3 4 [5 0] [13 10]] (REQUEST)
D 0.014477863 _20_ MAC  COL 0 AODV 106 [0 ffffffff 8 800] [energy 89.995319 ei 0.003 es 0.000 et 0.000 er 0.002] ------- [8:255 -1:255 28 0] [0x2 3 4 [5 0] [13 10]] (REQUEST)
D 0.015830184 _45_ MAC  COL 0 AODV 106 [0 ffffffff c 800] [energy 89.994518 ei 0.003 es 0.000 et 0.000 er 0.002] ------- [12:255 -1:255 29 0] [0x2 2 4 [5 0] [13 10]] (REQUEST)
D 0.015830232 _52_ MAC  COL 0 AODV 106 [0 ffffffff c 800] [energy 89.994517 ei 0.003 es 0.000 et 0.000 er 0.002] ------- [12:255 -1:255 29 0] [0x2 2 4 [5 0] [13 10]] (REQUEST)