n -t * -s 4  -x 0 -y 0 -Z 0 -z 20+i*10  -v circle -c green
n -t * -s 5  -x 0 -y 0 -Z 0 -z 20+i*10  -v circle -c green
n -t * -s 6  -x 0 -y 0 -Z 0 -z 20+i*10  -v circle -c green
n -t * -s 7  -x 0 -y 0 -Z 0 -z 20+i*10  -v circle -c green
n -t * -s 8  -x 0 -y 0 -Z 0 -z 20+i*10  -v circle -c green
n -t * -s 9  -x 0 -y 0 -Z 0 -z 20+i*10  -v circle -c green
n -t * -s 10  -x 0 -y 0 -Z 0 -z 20+i*10  -v circle -c green
n -t * -s 11  -x 0 -y 0 -Z 0 -z 20+i*10  -v circle -c green
n -t * -s 12  -x 0 -y 0 -Z 0 -z 20+i*10  -v circle -c green
n -t * -s 13  -x 0 -y 0 -Z 0 -z 20+i*10  -v circle -c green
n -t * -s 14  -x 0 -y 0 -Z 0 -z 20+i*10  -v circle -c green
n -t * -s 15  -x 0 -y 0 -Z 0 -z 20+i*10  -v circle -c green
n -t * -s 16  -x 0 -y 0 -Z 0 -z 20+i*10  -v circle -c green
n -t * -s 17  -x 0 -y 0 -Z 0 -z 20+i*10  -v circle -c green
n -t * -s 18  -x 0 -y 0 -Z 0 -z 20+i*10  -v circle -c green
n -t * -s 19  -x 0 -y 0 -Z 0 -z 20+i*10  -v circle -c green
n -t * -s 20  -x 0 -y 0 -Z 0 -z 20+i*10  -v circle -c green
n -t * -s 21  -x 0 -y 0 -Z 0 -z 20+i*10  -v circle -c green
n -t * -s 22  -x 0 -y 0 -Z 0 -z 20+i*10  -v circle -c green
n -t * -s 23  -x 0 -y 0 -Z 0 -z 20+i*10  -v circle -c green
n -t * -s 24  -x 0 -y 0 -Z 0 -z 20+i*10  -v circle -c green
n -t * -s 25  -x 0 -y 0 -Z 0 -z 20+i*10  -v circle -c green
n -t * -s 26  -x 0 -y 0 -Z 0 -z 20+i*10  -v circle -c green
n -t * -s 27  -x 0 -y 0 -Z 0 -z 20+i*10  -v circle -c green
n -t * -s 28  -x 0 -y 0 -Z 0 -z 20+i*10  -v circle -c green
n -t * -s 0  -x 191.57957319942284 -y 329.88676269952521 -Z 0 -z 30+i*10  -v circle -c green
n -t * -s 1  -x 17.820690920492957 -y 112.35230072511003 -Z 0 -z 30+i*10  -v circle -c green
n -t * -s 2  -x 89.118286924026108 -y 312.04833210681022 -Z 0 -z 30+i*10  -v circle -c green
n -t * -s 3  -x 106.31771915933011 -y 461.90591086116899 -Z 0 -z 30+i*10  -v circle -c green
V -t * -v 1.0a5 -a 0
W -t * -x 500 -y 500
A -t * -n 1 -p 0 -o 0x7fffffff -c 30 -a 1
A -t * -h 1 -m 1073741823 -s 0
c -t * -i 0 -n brown
n -t 0 -s 4 -S COLOR -c blue -o red -i blue -I red
n -t 0 -s 5 -S COLOR -c red -o red -i red -I red
n -t 0 -s 6 -S COLOR -c darkgreen -o red -i darkgreen -I red
n -t 0 -s 7 -S COLOR -c red -o red -i red -I red
n -t 0 -s 8 -S COLOR -c blue -o red -i blue -I red
n -t 0 -s 9 -S COLOR -c red -o red -i red -I red
n -t 0 -s 10 -S COLOR -c red -o red -i red -I red
n -t 0 -s 11 -S COLOR -c red -o red -i red -I red
n -t 0 -s 12 -S COLOR -c red -o red -i red -I red
n -t 0 -s 13 -S COLOR -c red -o red -i red -I red
n -t 0 -s 14 -S COLOR -c red -o red -i red -I red
n -t 0 -s 15 -S COLOR -c darkgreen -o red -i darkgreen -I red
n -t 0 -s 16 -S COLOR -c darkgreen -o red -i darkgreen -I red
n -t 0 -s 17 -S COLOR -c red -o red -i red -I red
n -t 0 -s 18 -S COLOR -c blue -o red -i blue -I red
n -t 0 -s 19 -S COLOR -c blue -o red -i blue -I red
n -t 0 -s 20 -S COLOR -c red -o red -i red -I red
n -t 0 -s 21 -S COLOR -c red -o red -i red -I red
n -t 0 -s 22 -S COLOR -c blue -o red -i blue -I red
n -t 0 -s 23 -S COLOR -c blue -o red -i blue -I red
n -t 0 -s 24 -S COLOR -c darkgreen -o red -i darkgreen -I red
n -t 0 -s 25 -S COLOR -c darkgreen -o red -i darkgreen -I red
n -t 0 -s 26 -S COLOR -c darkgreen -o red -i darkgreen -I red
n -t 0 -s 27 -S COLOR -c red -o red -i red -I red
n -t 0 -s 28 -S COLOR -c blue -o red -i blue -I red
n -t 0.000000 -s 0 -x 191.579573 -y 329.886763 -U 4101.975773 -V -9119.966818 -T 0.014242
n -t 0.000000 -s 1 -x 17.820691 -y 112.352301 -U 7777.475088 -V 6285.768151 -T 0.029853
n -t 0.000000 -s 2 -x 89.118287 -y 312.048332 -U 8726.583877 -V -4883.311770 -T 0.012706
n -t 0.000000 -s 3 -x 106.317719 -y 461.905911 -U 6746.548477 -V -7381.333460 -T 0.028708
n -t 0.000000 -s 4 -x 0.000000 -y 0.000000 -U 7071.067812 -V 7071.067812 -T 0.007071
n -t 0.000000 -s 5 -x 0.000000 -y 0.000000 -U 3162.277660 -V 9486.832981 -T 0.015811
n -t 0.000000 -s 6 -x 0.000000 -y 0.000000 -U 7338.085482 -V 6793.563238 -T 0.038566
n -t 0.000000 -s 7 -x 0.000000 -y 0.000000 -U 1414.213562 -V 9899.494937 -T 0.035355
n -t 0.000000 -s 8 -x 0.000000 -y 0.000000 -U 1104.315261 -V 9938.837347 -T 0.045277
n -t 0.000000 -s 9 -x 0.000000 -y 0.000000 -U 9486.832981 -V 3162.277660 -T 0.015811
n -t 0.000000 -s 10 -x 0.000000 -y 0.000000 -U 7172.793809 -V 6967.856843 -T 0.019518
n -t 0.000000 -s 11 -x 0.000000 -y 0.000000 -U 5564.908302 -V 8308.537512 -T 0.038635
n -t 0.000000 -s 12 -x 0.000000 -y 0.000000 -U 3939.192986 -V 9191.450300 -T 0.038079
n -t 0.000000 -s 13 -x 0.000000 -y 0.000000 -U 3162.277660 -V 9486.832981 -T 0.047434
n -t 0.000000 -s 14 -x 0.000000 -y 0.000000 -U 7323.057872 -V 6809.759423 -T 0.029223
n -t 0.000000 -s 15 -x 0.000000 -y 0.000000 -U 8137.334712 -V 5812.381937 -T 0.045592
n -t 0.000000 -s 16 -x 0.000000 -y 0.000000 -U 7071.067812 -V 7071.067812 -T 0.035355
n -t 0.000000 -s 17 -x 0.000000 -y 0.000000 -U 9998.000600 -V 199.960012 -T 0.025005
n -t 0.000000 -s 18 -x 0.000000 -y 0.000000 -U 4856.429312 -V 8741.572761 -T 0.051478
n -t 0.000000 -s 19 -x 0.000000 -y 0.000000 -U 995.037190 -V 9950.371902 -T 0.005025
n -t 0.000000 -s 20 -x 0.000000 -y 0.000000 -U 333.148302 -V 9994.449070 -T 0.015008
n -t 0.000000 -s 21 -x 0.000000 -y 0.000000 -U 199.960012 -V 9998.000600 -T 0.025005
n -t 0.000000 -s 22 -x 0.000000 -y 0.000000 -U 7071.067812 -V 7071.067812 -T 0.000707
n -t 0.000000 -s 23 -x 0.000000 -y 0.000000 -U 111.104253 -V 9999.382773 -T 0.045003
n -t 0.000000 -s 24 -x 0.000000 -y 0.000000 -U 9938.837347 -V 1104.315261 -T 0.045277
n -t 0.000000 -s 25 -x 0.000000 -y 0.000000 -U 9486.832981 -V 3162.277660 -T 0.047434
n -t 0.000000 -s 26 -x 0.000000 -y 0.000000 -U 8741.572761 -V 4856.429312 -T 0.051478
n -t 0.000000 -s 27 -x 0.000000 -y 0.000000 -U 9999.382773 -V 111.104253 -T 0.045003
n -t 0.000000 -s 28 -x 0.000000 -y 0.000000 -U 7071.067812 -V 7071.067812 -T 0.063640
n -t 0 -s 4 -S DLABEL -l "SENDER_NODE" -L ""
n -t 0 -s 8 -S DLABEL -l "SENDER_NODE" -L ""
n -t 0 -s 6 -S DLABEL -l "RECEIVER_NODE" -L ""
n -t 0 -s 15 -S DLABEL -l "RECEIVER_NODE" -L ""
n -t 0 -s 0 -S DLABEL -l "BASE_STATION" -L ""
n -t 0 -s 0 -S COLOR -c blue -o green -i blue -I green
n -t 0 -s 1 -S DLABEL -l "BASE_STATION" -L ""
n -t 0 -s 1 -S COLOR -c blue -o green -i blue -I green
n -t 0 -s 2 -S DLABEL -l "BASE_STATION" -L ""
n -t 0 -s 2 -S COLOR -c blue -o green -i blue -I green
n -t 0 -s 3 -S DLABEL -l "BASE_STATION" -L ""
n -t 0 -s 3 -S COLOR -c blue -o green -i blue -I green
+ -t 0.100000000 -s 4 -d -1 -p cbr -e 800 -c 2 -a 0 -i 0 -k AGT 
- -t 0.100000000 -s 4 -d -1 -p cbr -e 800 -c 2 -a 0 -i 0 -k AGT
h -t 0.100000000 -s 4 -d -1 -p cbr -e 800 -c 2 -a 0 -i 0 -k AGT
+ -t 0.100000000 -s 4 -d -1 -p AODV -e 48 -c 2 -a 0 -i 0 -k RTR 
- -t 0.100000000 -s 4 -d -1 -p AODV -e 48 -c 2 -a 0 -i 0 -k RTR
h -t 0.100000000 -s 4 -d -1 -p AODV -e 48 -c 2 -a 0 -i 0 -k RTR
+ -t 0.100615000 -s 4 -d -1 -p AODV -e 106 -c 2 -a 0 -i 0 -k MAC 
- -t 0.100615000 -s 4 -d -1 -p AODV -e 106 -c 2 -a 0 -i 0 -k MAC
h -t 0.100615000 -s 4 -d -1 -p AODV -e 106 -c 2 -a 0 -i 0 -k MAC
r -t 0.101463150 -s 19 -d -1 -p AODV -e 48 -c 2 -a 0 -i 0 -k MAC
r -t 0.101463212 -s 22 -d -1 -p AODV -e 48 -c 2 -a 0 -i 0 -k MAC
r -t 0.101463333 -s 5 -d -1 -p AODV -e 48 -c 2 -a 0 -i 0 -k MAC
r -t 0.101463333 -s 9 -d -1 -p AODV -e 48 -c 2 -a 0 -i 0 -k MAC
r -t 0.101463366 -s 20 -d -1 -p AODV -e 48 -c 2 -a 0 -i 0 -k MAC
r -t 0.101463415 -s 10 -d -1 -p AODV -e 48 -c 2 -a 0 -i 0 -k MAC
r -t 0.101463683 -s 17 -d -1 -p AODV -e 48 -c 2 -a 0 -i 0 -k MAC
r -t 0.101463683 -s 21 -d -1 -p AODV -e 48 -c 2 -a 0 -i 0 -k MAC
r -t 0.101463739 -s 14 -d -1 -p AODV -e 48 -c 2 -a 0 -i 0 -k MAC
r -t 0.101463833 -s 2 -d -1 -p AODV -e 48 -c 2 -a 0 -i 0 -k MAC
r -t 0.101463833 -s 0 -d -1 -p AODV -e 48 -c 2 -a 0 -i 0 -k MAC
r -t 0.101488150 -s 19 -d -1 -p AODV -e 48 -c 2 -a 0 -i 0 -k RTR
r -t 0.101488212 -s 22 -d -1 -p AODV -e 48 -c 2 -a 0 -i 0 -k RTR
r -t 0.101488333 -s 5 -d -1 -p AODV -e 48 -c 2 -a 0 -i 0 -k RTR
r -t 0.101488333 -s 9 -d -1 -p AODV -e 48 -c 2 -a 0 -i 0 -k RTR
r -t 0.101488366 -s 20 -d -1 -p AODV -e 48 -c 2 -a 0 -i 0 -k RTR
r -t 0.101488415 -s 10 -d -1 -p AODV -e 48 -c 2 -a 0 -i 0 -k RTR
r -t 0.101488683 -s 17 -d -1 -p AODV -e 48 -c 2 -a 0 -i 0 -k RTR
r -t 0.101488683 -s 21 -d -1 -p AODV -e 48 -c 2 -a 0 -i 0 -k RTR
r -t 0.101488739 -s 14 -d -1 -p AODV -e 48 -c 2 -a 0 -i 0 -k RTR
r -t 0.101488833 -s 2 -d -1 -p AODV -e 48 -c 2 -a 0 -i 0 -k RTR
r -t 0.101488833 -s 0 -d -1 -p AODV -e 48 -c 2 -a 0 -i 0 -k RTR
+ -t 0.101488833 -s 0 -d 4 -p AODV -e 44 -c 2 -a 0 -i 0 -k RTR 
- -t 0.101488833 -s 0 -d 4 -p AODV -e 44 -c 2 -a 0 -i 0 -k RTR
h -t 0.101488833 -s 0 -d 4 -p AODV -e 44 -c 2 -a 0 -i 0 -k RTR
+ -t 0.101743833 -s 0 -d -1 -p ARP -e 86 -c 2 -a 0 -i 0 -k MAC 
- -t 0.101743833 -s 0 -d -1 -p ARP -e 86 -c 2 -a 0 -i 0 -k MAC
h -t 0.101743833 -s 0 -d -1 -p ARP -e 86 -c 2 -a 0 -i 0 -k MAC
r -t 0.102431953 -s 14 -d -1 -p ARP -e 28 -c 2 -a 0 -i 0 -k MAC
r -t 0.102432000 -s 16 -d -1 -p ARP -e 28 -c 2 -a 0 -i 0 -k MAC
r -t 0.102432067 -s 6 -d -1 -p ARP -e 28 -c 2 -a 0 -i 0 -k MAC
r -t 0.102432069 -s 2 -d -1 -p ARP -e 28 -c 2 -a 0 -i 0 -k MAC
r -t 0.102432069 -s 3 -d -1 -p ARP -e 28 -c 2 -a 0 -i 0 -k MAC
r -t 0.102432167 -s 1 -d -1 -p ARP -e 28 -c 2 -a 0 -i 0 -k MAC
r -t 0.102432253 -s 11 -d -1 -p ARP -e 28 -c 2 -a 0 -i 0 -k MAC
r -t 0.102432258 -s 10 -d -1 -p ARP -e 28 -c 2 -a 0 -i 0 -k MAC
r -t 0.102432291 -s 15 -d -1 -p ARP -e 28 -c 2 -a 0 -i 0 -k MAC
r -t 0.102432434 -s 9 -d -1 -p ARP -e 28 -c 2 -a 0 -i 0 -k MAC
r -t 0.102432434 -s 12 -d -1 -p ARP -e 28 -c 2 -a 0 -i 0 -k MAC
r -t 0.102432483 -s 17 -d -1 -p ARP -e 28 -c 2 -a 0 -i 0 -k MAC
r -t 0.102432521 -s 5 -d -1 -p ARP -e 28 -c 2 -a 0 -i 0 -k MAC
r -t 0.102432521 -s 26 -d -1 -p ARP -e 28 -c 2 -a 0 -i 0 -k MAC
r -t 0.102432521 -s 25 -d -1 -p ARP -e 28 -c 2 -a 0 -i 0 -k MAC
r -t 0.102432667 -s 4 -d -1 -p ARP -e 28 -c 2 -a 0 -i 0 -k MAC
r -t 0.102432667 -s 7 -d -1 -p ARP -e 28 -c 2 -a 0 -i 0 -k MAC
r -t 0.102432667 -s 18 -d -1 -p ARP -e 28 -c 2 -a 0 -i 0 -k MAC
r -t 0.102432667 -s 24 -d -1 -p ARP -e 28 -c 2 -a 0 -i 0 -k MAC
+ -t 0.102580400 -s 10 -d -1 -p AODV -e 48 -c 2 -a 0 -i 0 -k RTR 
- -t 0.102580400 -s 10 -d -1 -p AODV -e 48 -c 2 -a 0 -i 0 -k RTR
h -t 0.102580400 -s 10 -d -1 -p AODV -e 48 -c 2 -a 0 -i 0 -k RTR
+ -t 0.102622667 -s 4 -d -1 -p RTS -e 44 -c 2 -a 0 -i 0 -k MAC 
- -t 0.102622667 -s 4 -d -1 -p RTS -e 44 -c 2 -a 0 -i 0 -k MAC
h -t 0.102622667 -s 4 -d -1 -p RTS -e 44 -c 2 -a 0 -i 0 -k MAC
r -t 0.102975500 -s 0 -d -1 -p RTS -e 44 -c 2 -a 0 -i 0 -k MAC
+ -t 0.102985500 -s 0 -d -1 -p CTS -e 38 -c 2 -a 0 -i 0 -k MAC 
- -t 0.102985500 -s 0 -d -1 -p CTS -e 38 -c 2 -a 0 -i 0 -k MAC
h -t 0.102985500 -s 0 -d -1 -p CTS -e 38 -c 2 -a 0 -i 0 -k MAC
r -t 0.103290333 -s 4 -d -1 -p CTS -e 38 -c 2 -a 0 -i 0 -k MAC
+ -t 0.103300333 -s 4 -d -1 -p ARP -e 86 -c 2 -a 0 -i 0 -k MAC 
- -t 0.103300333 -s 4 -d -1 -p ARP -e 86 -c 2 -a 0 -i 0 -k MAC
h -t 0.103300333 -s 4 -d -1 -p ARP -e 86 -c 2 -a 0 -i 0 -k MAC
+ -t 0.103362336 -s 21 -d -1 -p AODV -e 48 -c 2 -a 0 -i 0 -k RTR 
- -t 0.103362336 -s 21 -d -1 -p AODV -e 48 -c 2 -a 0 -i 0 -k RTR
h -t 0.103362336 -s 21 -d -1 -p AODV -e 48 -c 2 -a 0 -i 0 -k RTR
r -t 0.103989167 -s 0 -d -1 -p ARP -e 28 -c 2 -a 0 -i 0 -k MAC
+ -t 0.103999167 -s 0 -d -1 -p ACK -e 38 -c 2 -a 0 -i 0 -k MAC 
- -t 0.103999167 -s 0 -d -1 -p ACK -e 38 -c 2 -a 0 -i 0 -k MAC
h -t 0.103999167 -s 0 -d -1 -p ACK -e 38 -c 2 -a 0 -i 0 -k MAC
r -t 0.104304000 -s 4 -d -1 -p ACK -e 38 -c 2 -a 0 -i 0 -k MAC
+ -t 0.104413591 -s 10 -d -1 -p AODV -e 106 -c 2 -a 0 -i 0 -k MAC 
- -t 0.104413591 -s 10 -d -1 -p AODV -e 106 -c 2 -a 0 -i 0 -k MAC
h -t 0.104413591 -s 10 -d -1 -p AODV -e 106 -c 2 -a 0 -i 0 -k MAC
r -t 0.105261879 -s 9 -d -1 -p AODV -e 48 -c 2 -a 0 -i 0 -k MAC
r -t 0.105261894 -s 5 -d -1 -p AODV -e 48 -c 2 -a 0 -i 0 -k MAC
r -t 0.105261915 -s 14 -d -1 -p AODV -e 48 -c 2 -a 0 -i 0 -k MAC
r -t 0.105262006 -s 4 -d -1 -p AODV -e 48 -c 2 -a 0 -i 0 -k MAC
r -t 0.105262015 -s 0 -d -1 -p AODV -e 48 -c 2 -a 0 -i 0 -k MAC
r -t 0.105262020 -s 2 -d -1 -p AODV -e 48 -c 2 -a 0 -i 0 -k MAC
r -t 0.105262043 -s 20 -d -1 -p AODV -e 48 -c 2 -a 0 -i 0 -k MAC
r -t 0.105262119 -s 16 -d -1 -p AODV -e 48 -c 2 -a 0 -i 0 -k MAC
r -t 0.105262124 -s 19 -d -1 -p AODV -e 48 -c 2 -a 0 -i 0 -k MAC
r -t 0.105262161 -s 17 -d -1 -p AODV -e 48 -c 2 -a 0 -i 0 -k MAC
r -t 0.105262180 -s 21 -d -1 -p AODV -e 48 -c 2 -a 0 -i 0 -k MAC
r -t 0.105262218 -s 22 -d -1 -p AODV -e 48 -c 2 -a 0 -i 0 -k MAC
r -t 0.105262226 -s 6 -d -1 -p AODV -e 48 -c 2 -a 0 -i 0 -k MAC
r -t 0.105262246 -s 3 -d -1 -p AODV -e 48 -c 2 -a 0 -i 0 -k MAC
r -t 0.105262249 -s 1 -d -1 -p AODV -e 48 -c 2 -a 0 -i 0 -k MAC
r -t 0.105262256 -s 11 -d -1 -p AODV -e 48 -c 2 -a 0 -i 0 -k MAC
r -t 0.105262305 -s 12 -d -1 -p AODV -e 48 -c 2 -a 0 -i 0 -k MAC
r -t 0.105262365 -s 7 -d -1 -p AODV -e 48 -c 2 -a 0 -i 0 -k MAC
r -t 0.105286879 -s 9 -d -1 -p AODV -e 48 -c 2 -a 0 -i 0 -k RTR
r -t 0.105286894 -s 5 -d -1 -p AODV -e 48 -c 2 -a 0 -i 0 -k RTR
r -t 0.105286915 -s 14 -d -1 -p AODV -e 48 -c 2 -a 0 -i 0 -k RTR
r -t 0.105287006 -s 4 -d -1 -p AODV -e 48 -c 2 -a 0 -i 0 -k RTR
r -t 0.105287015 -s 0 -d -1 -p AODV -e 48 -c 2 -a 0 -i 0 -k RTR
r -t 0.105287020 -s 2 -d -1 -p AODV -e 48 -c 2 -a 0 -i 0 -k RTR
r -t 0.105287043 -s 20 -d -1 -p AODV -e 48 -c 2 -a 0 -i 0 -k RTR
r -t 0.105287119 -s 16 -d -1 -p AODV -e 48 -c 2 -a 0 -i 0 -k RTR
r -t 0.105287124 -s 19 -d -1 -p AODV -e 48 -c 2 -a 0 -i 0 -k RTR
r -t 0.105287161 -s 17 -d -1 -p AODV -e 48 -c 2 -a 0 -i 0 -k RTR
r -t 0.105287180 -s 21 -d -1 -p AODV -e 48 -c 2 -a 0 -i 0 -k RTR
r -t 0.105287218 -s 22 -d -1 -p AODV -e 48 -c 2 -a 0 -i 0 -k RTR
r -t 0.105287226 -s 6 -d -1 -p AODV -e 48 -c 2 -a 0 -i 0 -k RTR
r -t 0.105287246 -s 3 -d -1 -p AODV -e 48 -c 2 -a 0 -i 0 -k RTR
r -t 0.105287249 -s 1 -d -1 -p AODV -e 48 -c 2 -a 0 -i 0 -k RTR
r -t 0.105287256 -s 11 -d -1 -p AODV -e 48 -c 2 -a 0 -i 0 -k RTR
r -t 0.105287305 -s 12 -d -1 -p AODV -e 48 -c 2 -a 0 -i 0 -k RTR
r -t 0.105287365 -s 7 -d -1 -p AODV -e 48 -c 2 -a 0 -i 0 -k RTR
+ -t 0.105432180 -s 21 -d -1 -p AODV -e 106 -c 2 -a 0 -i 0 -k MAC 
- -t 0.105432180 -s 21 -d -1 -p AODV -e 106 -c 2 -a 0 -i 0 -k MAC
h -t 0.105432180 -s 21 -d -1 -p AODV -e 106 -c 2 -a 0 -i 0 -k MAC
+ -t 0.105530759 -s 17 -d -1 -p AODV -e 48 -c 2 -a 0 -i 0 -k RTR 
- -t 0.105530759 -s 17 -d -1 -p AODV -e 48 -c 2 -a 0 -i 0 -k RTR
h -t 0.105530759 -s 17 -d -1 -p AODV -e 48 -c 2 -a 0 -i 0 -k RTR
+ -t 0.105543556 -s 20 -d -1 -p AODV -e 48 -c 2 -a 0 -i 0 -k RTR 
- -t 0.105543556 -s 20 -d -1 -p AODV -e 48 -c 2 -a 0 -i 0 -k RTR
h -t 0.105543556 -s 20 -d -1 -p AODV -e 48 -c 2 -a 0 -i 0 -k RTR
r -t 0.106280513 -s 20 -d -1 -p AODV -e 48 -c 2 -a 0 -i 0 -k MAC
r -t 0.106280545 -s 7 -d -1 -p AODV -e 48 -c 2 -a 0 -i 0 -k MAC
r -t 0.106280545 -s 5 -d -1 -p AODV -e 48 -c 2 -a 0 -i 0 -k MAC
r -t 0.106280767 -s 12 -d -1 -p AODV -e 48 -c 2 -a 0 -i 0 -k MAC
r -t 0.106280769 -s 10 -d -1 -p AODV -e 48 -c 2 -a 0 -i 0 -k MAC
r -t 0.106280830 -s 2 -d -1 -p AODV -e 48 -c 2 -a 0 -i 0 -k MAC
r -t 0.106280847 -s 23 -d -1 -p AODV -e 48 -c 2 -a 0 -i 0 -k MAC
r -t 0.106280847 -s 19 -d -1 -p AODV -e 48 -c 2 -a 0 -i 0 -k MAC
r -t 0.106280863 -s 8 -d -1 -p AODV -e 48 -c 2 -a 0 -i 0 -k MAC
r -t 0.106280863 -s 4 -d -1 -p AODV -e 48 -c 2 -a 0 -i 0 -k MAC
r -t 0.106280897 -s 14 -d -1 -p AODV -e 48 -c 2 -a 0 -i 0 -k MAC
r -t 0.106280919 -s 11 -d -1 -p AODV -e 48 -c 2 -a 0 -i 0 -k MAC
r -t 0.106280997 -s 22 -d -1 -p AODV -e 48 -c 2 -a 0 -i 0 -k MAC
r -t 0.106280997 -s 16 -d -1 -p AODV -e 48 -c 2 -a 0 -i 0 -k MAC
r -t 0.106281003 -s 13 -d -1 -p AODV -e 48 -c 2 -a 0 -i 0 -k MAC
r -t 0.106281003 -s 9 -d -1 -p AODV -e 48 -c 2 -a 0 -i 0 -k MAC
r -t 0.106305513 -s 20 -d -1 -p AODV -e 48 -c 2 -a 0 -i 0 -k RTR
r -t 0.106305545 -s 7 -d -1 -p AODV -e 48 -c 2 -a 0 -i 0 -k RTR
r -t 0.106305545 -s 5 -d -1 -p AODV -e 48 -c 2 -a 0 -i 0 -k RTR
r -t 0.106305767 -s 12 -d -1 -p AODV -e 48 -c 2 -a 0 -i 0 -k RTR
r -t 0.106305769 -s 10 -d -1 -p AODV -e 48 -c 2 -a 0 -i 0 -k RTR
r -t 0.106305830 -s 2 -d -1 -p AODV -e 48 -c 2 -a 0 -i 0 -k RTR
r -t 0.106305847 -s 23 -d -1 -p AODV -e 48 -c 2 -a 0 -i 0 -k RTR
r -t 0.106305847 -s 19 -d -1 -p AODV -e 48 -c 2 -a 0 -i 0 -k RTR
r -t 0.106305863 -s 8 -d -1 -p AODV -e 48 -c 2 -a 0 -i 0 -k RTR
r -t 0.106305863 -s 4 -d -1 -p AODV -e 48 -c 2 -a 0 -i 0 -k RTR
r -t 0.106305897 -s 14 -d -1 -p AODV -e 48 -c 2 -a 0 -i 0 -k RTR
r -t 0.106305919 -s 11 -d -1 -p AODV -e 48 -c 2 -a 0 -i 0 -k RTR
r -t 0.106305997 -s 22 -d -1 -p AODV -e 48 -c 2 -a 0 -i 0 -k RTR
r -t 0.106305997 -s 16 -d -1 -p AODV -e 48 -c 2 -a 0 -i 0 -k RTR
r -t 0.106306003 -s 13 -d -1 -p AODV -e 48 -c 2 -a 0 -i 0 -k RTR
r -t 0.106306003 -s 9 -d -1 -p AODV -e 48 -c 2 -a 0 -i 0 -k RTR
+ -t 0.106518154 -s 16 -d -1 -p AODV -e 48 -c 2 -a 0 -i 0 -k RTR 
- -t 0.106518154 -s 16 -d -1 -p AODV -e 48 -c 2 -a 0 -i 0 -k RTR
h -t 0.106518154 -s 16 -d -1 -p AODV -e 48 -c 2 -a 0 -i 0 -k RTR
+ -t 0.106550513 -s 20 -d -1 -p AODV -e 106 -c 2 -a 0 -i 0 -k MAC 
- -t 0.106550513 -s 20 -d -1 -p AODV -e 106 -c 2 -a 0 -i 0 -k MAC
h -t 0.106550513 -s 20 -d -1 -p AODV -e 106 -c 2 -a 0 -i 0 -k MAC
r -t 0.107398663 -s 5 -d -1 -p AODV -e 48 -c 2 -a 0 -i 0 -k MAC
r -t 0.107398847 -s 21 -d -1 -p AODV -e 48 -c 2 -a 0 -i 0 -k MAC
r -t 0.107398847 -s 19 -d -1 -p AODV -e 48 -c 2 -a 0 -i 0 -k MAC
r -t 0.107398879 -s 4 -d -1 -p AODV -e 48 -c 2 -a 0 -i 0 -k MAC
r -t 0.107398966 -s 10 -d -1 -p AODV -e 48 -c 2 -a 0 -i 0 -k MAC
r -t 0.107398997 -s 22 -d -1 -p AODV -e 48 -c 2 -a 0 -i 0 -k MAC
r -t 0.107399100 -s 9 -d -1 -p AODV -e 48 -c 2 -a 0 -i 0 -k MAC
r -t 0.107399197 -s 7 -d -1 -p AODV -e 48 -c 2 -a 0 -i 0 -k MAC
r -t 0.107399229 -s 14 -d -1 -p AODV -e 48 -c 2 -a 0 -i 0 -k MAC
r -t 0.107399244 -s 2 -d -1 -p AODV -e 48 -c 2 -a 0 -i 0 -k MAC
r -t 0.107399337 -s 12 -d -1 -p AODV -e 48 -c 2 -a 0 -i 0 -k MAC
r -t 0.107423663 -s 5 -d -1 -p AODV -e 48 -c 2 -a 0 -i 0 -k RTR
r -t 0.107423847 -s 21 -d -1 -p AODV -e 48 -c 2 -a 0 -i 0 -k RTR
r -t 0.107423847 -s 19 -d -1 -p AODV -e 48 -c 2 -a 0 -i 0 -k RTR
r -t 0.107423879 -s 4 -d -1 -p AODV -e 48 -c 2 -a 0 -i 0 -k RTR
r -t 0.107423966 -s 10 -d -1 -p AODV -e 48 -c 2 -a 0 -i 0 -k RTR
r -t 0.107423997 -s 22 -d -1 -p AODV -e 48 -c 2 -a 0 -i 0 -k RTR
r -t 0.107424100 -s 9 -d -1 -p AODV -e 48 -c 2 -a 0 -i 0 -k RTR
r -t 0.107424197 -s 7 -d -1 -p AODV -e 48 -c 2 -a 0 -i 0 -k RTR
r -t 0.107424229 -s 14 -d -1 -p AODV -e 48 -c 2 -a 0 -i 0 -k RTR
r -t 0.107424244 -s 2 -d -1 -p AODV -e 48 -c 2 -a 0 -i 0 -k RTR
r -t 0.107424337 -s 12 -d -1 -p AODV -e 48 -c 2 -a 0 -i 0 -k RTR
+ -t 0.107857183 -s 3 -d -1 -p AODV -e 48 -c 2 -a 0 -i 0 -k RTR 
- -t 0.107857183 -s 3 -d -1 -p AODV -e 48 -c 2 -a 0 -i 0 -k RTR
h -t 0.107857183 -s 3 -d -1 -p AODV -e 48 -c 2 -a 0 -i 0 -k RTR
+ -t 0.107905606 -s 7 -d -1 -p AODV -e 48 -c 2 -a 0 -i 0 -k RTR 
- -t 0.107905606 -s 7 -d -1 -p AODV -e 48 -c 2 -a 0 -i 0 -k RTR
h -t 0.107905606 -s 7 -d -1 -p AODV -e 48 -c 2 -a 0 -i 0 -k RTR
+ -t 0.107952183 -s 3 -d -1 -p AODV -e 106 -c 2 -a 0 -i 0 -k MAC 
- -t 0.107952183 -s 3 -d -1 -p AODV -e 106 -c 2 -a 0 -i 0 -k MAC
h -t 0.107952183 -s 3 -d -1 -p AODV -e 106 -c 2 -a 0 -i 0 -k MAC
+ -t 0.108168006 -s 8 -d -1 -p AODV -e 48 -c 2 -a 0 -i 0 -k RTR 
- -t 0.108168006 -s 8 -d -1 -p AODV -e 48 -c 2 -a 0 -i 0 -k RTR
h -t 0.108168006 -s 8 -d -1 -p AODV -e 48 -c 2 -a 0 -i 0 -k RTR
+ -t 0.108261702 -s 22 -d -1 -p AODV -e 48 -c 2 -a 0 -i 0 -k RTR 
- -t 0.108261702 -s 22 -d -1 -p AODV -e 48 -c 2 -a 0 -i 0 -k RTR
h -t 0.108261702 -s 22 -d -1 -p AODV -e 48 -c 2 -a 0 -i 0 -k RTR
r -t 0.108800252 -s 6 -d -1 -p AODV -e 48 -c 2 -a 0 -i 0 -k MAC
r -t 0.108800350 -s 16 -d -1 -p AODV -e 48 -c 2 -a 0 -i 0 -k MAC
r -t 0.108800419 -s 1 -d -1 -p AODV -e 48 -c 2 -a 0 -i 0 -k MAC
r -t 0.108800419 -s 0 -d -1 -p AODV -e 48 -c 2 -a 0 -i 0 -k MAC
r -t 0.108800425 -s 15 -d -1 -p AODV -e 48 -c 2 -a 0 -i 0 -k MAC
r -t 0.108800516 -s 14 -d -1 -p AODV -e 48 -c 2 -a 0 -i 0 -k MAC
r -t 0.108800516 -s 2 -d -1 -p AODV -e 48 -c 2 -a 0 -i 0 -k MAC
r -t 0.108800552 -s 11 -d -1 -p AODV -e 48 -c 2 -a 0 -i 0 -k MAC
r -t 0.108800683 -s 26 -d -1 -p AODV -e 48 -c 2 -a 0 -i 0 -k MAC
r -t 0.108800784 -s 12 -d -1 -p AODV -e 48 -c 2 -a 0 -i 0 -k MAC
r -t 0.108800784 -s 25 -d -1 -p AODV -e 48 -c 2 -a 0 -i 0 -k MAC
r -t 0.108800838 -s 10 -d -1 -p AODV -e 48 -c 2 -a 0 -i 0 -k MAC
r -t 0.108800870 -s 18 -d -1 -p AODV -e 48 -c 2 -a 0 -i 0 -k MAC
r -t 0.108801016 -s 9 -d -1 -p AODV -e 48 -c 2 -a 0 -i 0 -k MAC
r -t 0.108801016 -s 13 -d -1 -p AODV -e 48 -c 2 -a 0 -i 0 -k MAC
r -t 0.108801016 -s 28 -d -1 -p AODV -e 48 -c 2 -a 0 -i 0 -k MAC
r -t 0.108801016 -s 24 -d -1 -p AODV -e 48 -c 2 -a 0 -i 0 -k MAC
r -t 0.108825252 -s 6 -d -1 -p AODV -e 48 -c 2 -a 0 -i 0 -k RTR
r -t 0.108825350 -s 16 -d -1 -p AODV -e 48 -c 2 -a 0 -i 0 -k RTR
r -t 0.108825419 -s 1 -d -1 -p AODV -e 48 -c 2 -a 0 -i 0 -k RTR
r -t 0.108825419 -s 0 -d -1 -p AODV -e 48 -c 2 -a 0 -i 0 -k RTR
r -t 0.108825425 -s 15 -d -1 -p AODV -e 48 -c 2 -a 0 -i 0 -k RTR
r -t 0.108825516 -s 14 -d -1 -p AODV -e 48 -c 2 -a 0 -i 0 -k RTR
r -t 0.108825516 -s 2 -d -1 -p AODV -e 48 -c 2 -a 0 -i 0 -k RTR
r -t 0.108825552 -s 11 -d -1 -p AODV -e 48 -c 2 -a 0 -i 0 -k RTR
r -t 0.108825683 -s 26 -d -1 -p AODV -e 48 -c 2 -a 0 -i 0 -k RTR
r -t 0.108825784 -s 12 -d -1 -p AODV -e 48 -c 2 -a 0 -i 0 -k RTR
r -t 0.108825784 -s 25 -d -1 -p AODV -e 48 -c 2 -a 0 -i 0 -k RTR
r -t 0.108825838 -s 10 -d -1 -p AODV -e 48 -c 2 -a 0 -i 0 -k RTR
r -t 0.108825870 -s 18 -d -1 -p AODV -e 48 -c 2 -a 0 -i 0 -k RTR
r -t 0.108826016 -s 9 -d -1 -p AODV -e 48 -c 2 -a 0 -i 0 -k RTR
r -t 0.108826016 -s 13 -d -1 -p AODV -e 48 -c 2 -a 0 -i 0 -k RTR
r -t 0.108826016 -s 28 -d -1 -p AODV -e 48 -c 2 -a 0 -i 0 -k RTR
r -t 0.108826016 -s 24 -d -1 -p AODV -e 48 -c 2 -a 0 -i 0 -k RTR
+ -t 0.108990419 -s 0 -d -1 -p RTS -e 44 -c 2 -a 0 -i 0 -k MAC 
- -t 0.108990419 -s 0 -d -1 -p RTS -e 44 -c 2 -a 0 -i 0 -k MAC
h -t 0.108990419 -s 0 -d -1 -p RTS -e 44 -c 2 -a 0 -i 0 -k MAC
+ -t 0.109110652 -s 5 -d -1 -p AODV -e 48 -c 2 -a 0 -i 0 -k RTR 
- -t 0.109110652 -s 5 -d -1 -p AODV -e 48 -c 2 -a 0 -i 0 -k RTR
h -t 0.109110652 -s 5 -d -1 -p AODV -e 48 -c 2 -a 0 -i 0 -k RTR
+ -t 0.109327017 -s 26 -d -1 -p AODV -e 48 -c 2 -a 0 -i 0 -k RTR 
- -t 0.109327017 -s 26 -d -1 -p AODV -e 48 -c 2 -a 0 -i 0 -k RTR
h -t 0.109327017 -s 26 -d -1 -p AODV -e 48 -c 2 -a 0 -i 0 -k RTR
r -t 0.109343252 -s 4 -d -1 -p RTS -e 44 -c 2 -a 0 -i 0 -k MAC
+ -t 0.109353252 -s 4 -d -1 -p CTS -e 38 -c 2 -a 0 -i 0 -k MAC 
- -t 0.109353252 -s 4 -d -1 -p CTS -e 38 -c 2 -a 0 -i 0 -k MAC
h -t 0.109353252 -s 4 -d -1 -p CTS -e 38 -c 2 -a 0 -i 0 -k MAC
+ -t 0.109579017 -s 23 -d -1 -p AODV -e 48 -c 2 -a 0 -i 0 -k RTR 
- -t 0.109579017 -s 23 -d -1 -p AODV -e 48 -c 2 -a 0 -i 0 -k RTR
h -t 0.109579017 -s 23 -d -1 -p AODV -e 48 -c 2 -a 0 -i 0 -k RTR
r -t 0.109658086 -s 0 -d -1 -p CTS -e 38 -c 2 -a 0 -i 0 -k MAC
+ -t 0.109668086 -s 0 -d 4 -p AODV -e 102 -c 2 -a 0 -i 0 -k MAC 
- -t 0.109668086 -s 0 -d 4 -p AODV -e 102 -c 2 -a 0 -i 0 -k MAC
h -t 0.109668086 -s 0 -d 4 -p AODV -e 102 -c 2 -a 0 -i 0 -k MAC
+ -t 0.109999216 -s 19 -d -1 -p AODV -e 48 -c 2 -a 0 -i 0 -k RTR 
- -t 0.109999216 -s 19 -d -1 -p AODV -e 48 -c 2 -a 0 -i 0 -k RTR
h -t 0.109999216 -s 19 -d -1 -p AODV -e 48 -c 2 -a 0 -i 0 -k RTR
+ -t 0.110363174 -s 14 -d -1 -p AODV -e 48 -c 2 -a 0 -i 0 -k RTR 
- -t 0.110363174 -s 14 -d -1 -p AODV -e 48 -c 2 -a 0 -i 0 -k RTR
h -t 0.110363174 -s 14 -d -1 -p AODV -e 48 -c 2 -a 0 -i 0 -k RTR
r -t 0.110484919 -s 4 -d 4 -p AODV -e 44 -c 2 -a 0 -i 0 -k MAC
+ -t 0.110494919 -s 4 -d -1 -p ACK -e 38 -c 2 -a 0 -i 0 -k MAC 
- -t 0.110494919 -s 4 -d -1 -p ACK -e 38 -c 2 -a 0 -i 0 -k MAC
h -t 0.110494919 -s 4 -d -1 -p ACK -e 38 -c 2 -a 0 -i 0 -k MAC
+ -t 0.110509919 -s 4 -d 0 -p cbr -e 820 -c 2 -a 0 -i 0 -k RTR 
- -t 0.110509919 -s 4 -d 0 -p cbr -e 820 -c 2 -a 0 -i 0 -k RTR
h -t 0.110509919 -s 4 -d 0 -p cbr -e 820 -c 2 -a 0 -i 0 -k RTR
+ -t 0.110537788 -s 9 -d -1 -p AODV -e 48 -c 2 -a 0 -i 0 -k RTR 
- -t 0.110537788 -s 9 -d -1 -p AODV -e 48 -c 2 -a 0 -i 0 -k RTR
h -t 0.110537788 -s 9 -d -1 -p AODV -e 48 -c 2 -a 0 -i 0 -k RTR
+ -t 0.110735476 -s 11 -d -1 -p AODV -e 48 -c 2 -a 0 -i 0 -k RTR 
- -t 0.110735476 -s 11 -d -1 -p AODV -e 48 -c 2 -a 0 -i 0 -k RTR
h -t 0.110735476 -s 11 -d -1 -p AODV -e 48 -c 2 -a 0 -i 0 -k RTR
r -t 0.110799752 -s 0 -d -1 -p ACK -e 38 -c 2 -a 0 -i 0 -k MAC
+ -t 0.110889602 -s 17 -d -1 -p AODV -e 106 -c 2 -a 0 -i 0 -k MAC 
- -t 0.110889602 -s 17 -d -1 -p AODV -e 106 -c 2 -a 0 -i 0 -k MAC
h -t 0.110889602 -s 17 -d -1 -p AODV -e 106 -c 2 -a 0 -i 0 -k MAC
+ -t 0.110951483 -s 2 -d -1 -p AODV -e 48 -c 2 -a 0 -i 0 -k RTR 
- -t 0.110951483 -s 2 -d -1 -p AODV -e 48 -c 2 -a 0 -i 0 -k RTR
h -t 0.110951483 -s 2 -d -1 -p AODV -e 48 -c 2 -a 0 -i 0 -k RTR
r -t 0.111737968 -s 9 -d -1 -p AODV -e 48 -c 2 -a 0 -i 0 -k MAC
r -t 0.111738172 -s 10 -d -1 -p AODV -e 48 -c 2 -a 0 -i 0 -k MAC
r -t 0.111738252 -s 0 -d -1 -p AODV -e 48 -c 2 -a 0 -i 0 -k MAC
r -t 0.111738260 -s 14 -d -1 -p AODV -e 48 -c 2 -a 0 -i 0 -k MAC
r -t 0.111738269 -s 27 -d -1 -p AODV -e 48 -c 2 -a 0 -i 0 -k MAC
r -t 0.111738286 -s 4 -d -1 -p AODV -e 48 -c 2 -a 0 -i 0 -k MAC
r -t 0.111738286 -s 24 -d -1 -p AODV -e 48 -c 2 -a 0 -i 0 -k MAC
r -t 0.111738419 -s 22 -d -1 -p AODV -e 48 -c 2 -a 0 -i 0 -k MAC
r -t 0.111738419 -s 16 -d -1 -p AODV -e 48 -c 2 -a 0 -i 0 -k MAC
r -t 0.111738426 -s 5 -d -1 -p AODV -e 48 -c 2 -a 0 -i 0 -k MAC
r -t 0.111738426 -s 25 -d -1 -p AODV -e 48 -c 2 -a 0 -i 0 -k MAC
r -t 0.111738432 -s 19 -d -1 -p AODV -e 48 -c 2 -a 0 -i 0 -k MAC
r -t 0.111762968 -s 9 -d -1 -p AODV -e 48 -c 2 -a 0 -i 0 -k RTR
r -t 0.111763172 -s 10 -d -1 -p AODV -e 48 -c 2 -a 0 -i 0 -k RTR
r -t 0.111763252 -s 0 -d -1 -p AODV -e 48 -c 2 -a 0 -i 0 -k RTR
r -t 0.111763260 -s 14 -d -1 -p AODV -e 48 -c 2 -a 0 -i 0 -k RTR
r -t 0.111763269 -s 27 -d -1 -p AODV -e 48 -c 2 -a 0 -i 0 -k RTR
r -t 0.111763286 -s 4 -d -1 -p AODV -e 48 -c 2 -a 0 -i 0 -k RTR
r -t 0.111763286 -s 24 -d -1 -p AODV -e 48 -c 2 -a 0 -i 0 -k RTR
r -t 0.111763419 -s 22 -d -1 -p AODV -e 48 -c 2 -a 0 -i 0 -k RTR
r -t 0.111763419 -s 16 -d -1 -p AODV -e 48 -c 2 -a 0 -i 0 -k RTR
r -t 0.111763426 -s 5 -d -1 -p AODV -e 48 -c 2 -a 0 -i 0 -k RTR
r -t 0.111763426 -s 25 -d -1 -p AODV -e 48 -c 2 -a 0 -i 0 -k RTR
r -t 0.111763432 -s 19 -d -1 -p AODV -e 48 -c 2 -a 0 -i 0 -k RTR
+ -t 0.111807968 -s 9 -d -1 -p AODV -e 106 -c 2 -a 0 -i 0 -k MAC 
- -t 0.111807968 -s 9 -d -1 -p AODV -e 106 -c 2 -a 0 -i 0 -k MAC
h -t 0.111807968 -s 9 -d -1 -p AODV -e 106 -c 2 -a 0 -i 0 -k MAC
+ -t 0.111973465 -s 6 -d -1 -p AODV -e 48 -c 2 -a 0 -i 0 -k RTR 
- -t 0.111973465 -s 6 -d -1 -p AODV -e 48 -c 2 -a 0 -i 0 -k RTR
h -t 0.111973465 -s 6 -d -1 -p AODV -e 48 -c 2 -a 0 -i 0 -k RTR
+ -t 0.112273981 -s 1 -d -1 -p AODV -e 48 -c 2 -a 0 -i 0 -k RTR 
- -t 0.112273981 -s 1 -d -1 -p AODV -e 48 -c 2 -a 0 -i 0 -k RTR
h -t 0.112273981 -s 1 -d -1 -p AODV -e 48 -c 2 -a 0 -i 0 -k RTR
r -t 0.112656256 -s 10 -d -1 -p AODV -e 48 -c 2 -a 0 -i 0 -k MAC
r -t 0.112656301 -s 4 -d -1 -p AODV -e 48 -c 2 -a 0 -i 0 -k MAC
r -t 0.112656333 -s 17 -d -1 -p AODV -e 48 -c 2 -a 0 -i 0 -k MAC
r -t 0.112656439 -s 5 -d -1 -p AODV -e 48 -c 2 -a 0 -i 0 -k MAC
r -t 0.112656451 -s 19 -d -1 -p AODV -e 48 -c 2 -a 0 -i 0 -k MAC
r -t 0.112656474 -s 22 -d -1 -p AODV -e 48 -c 2 -a 0 -i 0 -k MAC
r -t 0.112656508 -s 14 -d -1 -p AODV -e 48 -c 2 -a 0 -i 0 -k MAC
r -t 0.112656555 -s 20 -d -1 -p AODV -e 48 -c 2 -a 0 -i 0 -k MAC
r -t 0.112656569 -s 0 -d -1 -p AODV -e 48 -c 2 -a 0 -i 0 -k MAC
r -t 0.112656655 -s 2 -d -1 -p AODV -e 48 -c 2 -a 0 -i 0 -k MAC
r -t 0.112656713 -s 16 -d -1 -p AODV -e 48 -c 2 -a 0 -i 0 -k MAC
r -t 0.112656791 -s 21 -d -1 -p AODV -e 48 -c 2 -a 0 -i 0 -k MAC
r -t 0.112656801 -s 3 -d -1 -p AODV -e 48 -c 2 -a 0 -i 0 -k MAC
r -t 0.112681256 -s 10 -d -1 -p AODV -e 48 -c 2 -a 0 -i 0 -k RTR
r -t 0.112681301 -s 4 -d -1 -p AODV -e 48 -c 2 -a 0 -i 0 -k RTR
r -t 0.112681333 -s 17 -d -1 -p AODV -e 48 -c 2 -a 0 -i 0 -k RTR
r -t 0.112681439 -s 5 -d -1 -p AODV -e 48 -c 2 -a 0 -i 0 -k RTR
r -t 0.112681451 -s 19 -d -1 -p AODV -e 48 -c 2 -a 0 -i 0 -k RTR
r -t 0.112681474 -s 22 -d -1 -p AODV -e 48 -c 2 -a 0 -i 0 -k RTR
r -t 0.112681508 -s 14 -d -1 -p AODV -e 48 -c 2 -a 0 -i 0 -k RTR
r -t 0.112681555 -s 20 -d -1 -p AODV -e 48 -c 2 -a 0 -i 0 -k RTR
r -t 0.112681569 -s 0 -d -1 -p AODV -e 48 -c 2 -a 0 -i 0 -k RTR
r -t 0.112681655 -s 2 -d -1 -p AODV -e 48 -c 2 -a 0 -i 0 -k RTR
r -t 0.112681713 -s 16 -d -1 -p AODV -e 48 -c 2 -a 0 -i 0 -k RTR
r -t 0.112681791 -s 21 -d -1 -p AODV -e 48 -c 2 -a 0 -i 0 -k RTR
r -t 0.112681801 -s 3 -d -1 -p AODV -e 48 -c 2 -a 0 -i 0 -k RTR
+ -t 0.112726713 -s 16 -d -1 -p AODV -e 106 -c 2 -a 0 -i 0 -k MAC 
- -t 0.112726713 -s 16 -d -1 -p AODV -e 106 -c 2 -a 0 -i 0 -k MAC
h -t 0.112726713 -s 16 -d -1 -p AODV -e 106 -c 2 -a 0 -i 0 -k MAC
+ -t 0.113038217 -s 24 -d -1 -p AODV -e 48 -c 2 -a 0 -i 0 -k RTR 
- -t 0.113038217 -s 24 -d -1 -p AODV -e 48 -c 2 -a 0 -i 0 -k RTR
h -t 0.113038217 -s 24 -d -1 -p AODV -e 48 -c 2 -a 0 -i 0 -k RTR
r -t 0.113574830 -s 6 -d -1 -p AODV -e 48 -c 2 -a 0 -i 0 -k MAC
r -t 0.113574880 -s 1 -d -1 -p AODV -e 48 -c 2 -a 0 -i 0 -k MAC
r -t 0.113574880 -s 0 -d -1 -p AODV -e 48 -c 2 -a 0 -i 0 -k MAC
r -t 0.113574880 -s 2 -d -1 -p AODV -e 48 -c 2 -a 0 -i 0 -k MAC
r -t 0.113574880 -s 3 -d -1 -p AODV -e 48 -c 2 -a 0 -i 0 -k MAC
r -t 0.113574921 -s 14 -d -1 -p AODV -e 48 -c 2 -a 0 -i 0 -k MAC
r -t 0.113574977 -s 11 -d -1 -p AODV -e 48 -c 2 -a 0 -i 0 -k MAC
r -t 0.113575119 -s 15 -d -1 -p AODV -e 48 -c 2 -a 0 -i 0 -k MAC
r -t 0.113575184 -s 12 -d -1 -p AODV -e 48 -c 2 -a 0 -i 0 -k MAC
r -t 0.113575241 -s 10 -d -1 -p AODV -e 48 -c 2 -a 0 -i 0 -k MAC
r -t 0.113575380 -s 18 -d -1 -p AODV -e 48 -c 2 -a 0 -i 0 -k MAC
r -t 0.113575380 -s 26 -d -1 -p AODV -e 48 -c 2 -a 0 -i 0 -k MAC
r -t 0.113575458 -s 9 -d -1 -p AODV -e 48 -c 2 -a 0 -i 0 -k MAC
r -t 0.113575458 -s 13 -d -1 -p AODV -e 48 -c 2 -a 0 -i 0 -k MAC
r -t 0.113575458 -s 5 -d -1 -p AODV -e 48 -c 2 -a 0 -i 0 -k MAC
r -t 0.113575458 -s 7 -d -1 -p AODV -e 48 -c 2 -a 0 -i 0 -k MAC
r -t 0.113575458 -s 25 -d -1 -p AODV -e 48 -c 2 -a 0 -i 0 -k MAC
r -t 0.113575530 -s 17 -d -1 -p AODV -e 48 -c 2 -a 0 -i 0 -k MAC
r -t 0.113575530 -s 21 -d -1 -p AODV -e 48 -c 2 -a 0 -i 0 -k MAC