M 0.00000 0 (191.58, 329.89, 0.00), (250.00, 200.00), 10000.00
M 0.00000 1 (17.82, 112.35, 0.00), (250.00, 300.00), 10000.00
M 0.00000 2 (89.12, 312.05, 0.00), (200.00, 250.00), 10000.00
M 0.00000 3 (106.32, 461.91, 0.00), (300.00, 250.00), 10000.00
M 0.00000 4 (0.00, 0.00, 0.00), (50.00, 50.00), 10000.00
M 0.00000 5 (0.00, 0.00, 0.00), (50.00, 150.00), 10000.00
M 0.00000 6 (0.00, 0.00, 0.00), (283.00, 262.00), 10000.00
M 0.00000 7 (0.00, 0.00, 0.00), (50.00, 350.00), 10000.00
M 0.00000 8 (0.00, 0.00, 0.00), (50.00, 450.00), 10000.00
M 0.00000 9 (0.00, 0.00, 0.00), (150.00, 50.00), 10000.00
M 0.00000 10 (0.00, 0.00, 0.00), (140.00, 136.00), 10000.00
M 0.00000 11 (0.00, 0.00, 0.00), (215.00, 321.00), 10000.00
M 0.00000 12 (0.00, 0.00, 0.00), (150.00, 350.00), 10000.00
M 0.00000 13 (0.00, 0.00, 0.00), (150.00, 450.00), 10000.00
M 0.00000 14 (0.00, 0.00, 0.00), (214.00, 199.00), 10000.00
M 0.00000 15 (0.00, 0.00, 0.00), (371.00, 265.00), 10000.00
M 0.00000 16 (0.00, 0.00, 0.00), (250.00, 250.00), 10000.00
M 0.00000 17 (0.00, 0.00, 0.00), (250.00, 5.00), 10000.00
M 0.00000 18 (0.00, 0.00, 0.00), (250.00, 450.00), 10000.00
M 0.00000 19 (0.00, 0.00, 0.00), (5.00, 50.00), 10000.00
M 0.00000 20 (0.00, 0.00, 0.00), (5.00, 150.00), 10000.00
M 0.00000 21 (0.00, 0.00, 0.00), (5.00, 250.00), 10000.00
M 0.00000 22 (0.00, 0.00, 0.00), (5.00, 5.00), 10000.00
M 0.00000 23 (0.00, 0.00, 0.00), (5.00, 450.00), 10000.00
M 0.00000 24 (0.00, 0.00, 0.00), (450.00, 50.00), 10000.00
M 0.00000 25 (0.00, 0.00, 0.00), (450.00, 150.00), 10000.00
M 0.00000 26 (0.00, 0.00, 0.00), (450.00, 250.00), 10000.00
M 0.00000 27 (0.00, 0.00, 0.00), (450.00, 5.00), 10000.00
M 0.00000 28 (0.00, 0.00, 0.00), (450.00, 450.00), 10000.00
s 0.100000000 _4_ AGT  --- 0 cbr 800 [0 0 0 0] [energy 90.000000 ei 0.000 es 0.000 et 0.000 er 0.000] ------- [4:5 0:0 32 0] [0] 0 0
r 0.100000000 _4_ RTR  --- 0 cbr 800 [0 0 0 0] [energy 90.000000 ei 0.000 es 0.000 et 0.000 er 0.000] ------- [4:5 0:0 32 0] [0] 0 0
s 0.100000000 _4_ RTR  --- 0 AODV 48 [0 0 0 0] [energy 90.000000 ei 0.000 es 0.000 et 0.000 er 0.000] ------- [4:255 -1:255 30 0] [0x2 1 1 [0 0] [4 4]] (REQUEST)
s 0.100615000 _4_ MAC  --- 0 AODV 106 [0 ffffffff 4 800] [energy 90.000000 ei 0.000 es 0.000 et 0.000 er 0.000] ------- [4:255 -1:255 30 0] [0x2 1 1 [0 0] [4 4]] (REQUEST)
N -t 0.100615 -n 19 -e 89.899236
N -t 0.100615 -n 22 -e 89.899236
N -t 0.100615 -n 5 -e 89.899236
N -t 0.100615 -n 9 -e 89.899236
N -t 0.100615 -n 20 -e 89.899236
N -t 0.100615 -n 10 -e 89.899236
N -t 0.100616 -n 17 -e 89.899236
N -t 0.100616 -n 21 -e 89.899236
N -t 0.100616 -n 14 -e 89.899236
N -t 0.100616 -n 2 -e 89.899236
N -t 0.100616 -n 0 -e 89.899236
N -t 0.100616 -n 16 -e 89.899236
N -t 0.100616 -n 7 -e 89.899236
N -t 0.100616 -n 6 -e 89.899236
N -t 0.100616 -n 12 -e 89.899236
N -t 0.100616 -n 11 -e 89.899236
N -t 0.100616 -n 1 -e 89.899236
N -t 0.100616 -n 3 -e 89.899236
N -t 0.100616 -n 15 -e 89.899235
N -t 0.100616 -n 8 -e 89.899235
N -t 0.100616 -n 24 -e 89.899235
N -t 0.100616 -n 23 -e 89.899235
N -t 0.100616 -n 27 -e 89.899235
N -t 0.100616 -n 13 -e 89.899235
N -t 0.100616 -n 25 -e 89.899235
N -t 0.100616 -n 18 -e 89.899235
N -t 0.100616 -n 26 -e 89.899235
r 0.101463150 _19_ MAC  --- 0 AODV 48 [0 ffffffff 4 800] [energy 89.899236 ei 0.101 es 0.000 et 0.000 er 0.000] ------- [4:255 -1:255 30 0] [0x2 1 1 [0 0] [4 4]] (REQUEST)
r 0.101463212 _22_ MAC  --- 0 AODV 48 [0 ffffffff 4 800] [energy 89.899236 ei 0.101 es 0.000 et 0.000 er 0.000] ------- [4:255 -1:255 30 0] [0x2 1 1 [0 0] [4 4]] (REQUEST)
r 0.101463333 _5_ MAC  --- 0 AODV 48 [0 ffffffff 4 800] [energy 89.899236 ei 0.101 es 0.000 et 0.000 er 0.000] ------- [4:255 -1:255 30 0] [0x2 1 1 [0 0] [4 4]] (REQUEST)
r 0.101463333 _9_ MAC  --- 0 AODV 48 [0 ffffffff 4 800] [energy 89.899236 ei 0.101 es 0.000 et 0.000 er 0.000] ------- [4:255 -1:255 30 0] [0x2 1 1 [0 0] [4 4]] (REQUEST)
r 0.101463366 _20_ MAC  --- 0 AODV 48 [0 ffffffff 4 800] [energy 89.899236 ei 0.101 es 0.000 et 0.000 er 0.000] ------- [4:255 -1:255 30 0] [0x2 1 1 [0 0] [4 4]] (REQUEST)
r 0.101463415 _10_ MAC  --- 0 AODV 48 [0 ffffffff 4 800] [energy 89.899236 ei 0.101 es 0.000 et 0.000 er 0.000] ------- [4:255 -1:255 30 0] [0x2 1 1 [0 0] [4 4]] (REQUEST)
r 0.101463683 _17_ MAC  --- 0 AODV 48 [0 ffffffff 4 800] [energy 89.899236 ei 0.101 es 0.000 et 0.000 er 0.000] ------- [4:255 -1:255 30 0] [0x2 1 1 [0 0] [4 4]] (REQUEST)
r 0.101463683 _21_ MAC  --- 0 AODV 48 [0 ffffffff 4 800] [energy 89.899236 ei 0.101 es 0.000 et 0.000 er 0.000] ------- [4:255 -1:255 30 0] [0x2 1 1 [0 0] [4 4]] (REQUEST)
r 0.101463739 _14_ MAC  --- 0 AODV 48 [0 ffffffff 4 800] [energy 89.899236 ei 0.101 es 0.000 et 0.000 er 0.000] ------- [4:255 -1:255 30 0] [0x2 1 1 [0 0] [4 4]] (REQUEST)
r 0.101463833 _2_ MAC  --- 0 AODV 48 [0 ffffffff 4 800] [energy 89.899236 ei 0.101 es 0.000 et 0.000 er 0.000] ------- [4:255 -1:255 30 0] [0x2 1 1 [0 0] [4 4]] (REQUEST)
r 0.101463833 _0_ MAC  --- 0 AODV 48 [0 ffffffff 4 800] [energy 89.899236 ei 0.101 es 0.000 et 0.000 er 0.000] ------- [4:255 -1:255 30 0] [0x2 1 1 [0 0] [4 4]] (REQUEST)
r 0.101488150 _19_ RTR  --- 0 AODV 48 [0 ffffffff 4 800] [energy 89.899236 ei 0.101 es 0.000 et 0.000 er 0.000] ------- [4:255 -1:255 30 0] [0x2 1 1 [0 0] [4 4]] (REQUEST)
r 0.101488212 _22_ RTR  --- 0 AODV 48 [0 ffffffff 4 800] [energy 89.899236 ei 0.101 es 0.000 et 0.000 er 0.000] ------- [4:255 -1:255 30 0] [0x2 1 1 [0 0] [4 4]] (REQUEST)
r 0.101488333 _5_ RTR  --- 0 AODV 48 [0 ffffffff 4 800] [energy 89.899236 ei 0.101 es 0.000 et 0.000 er 0.000] ------- [4:255 -1:255 30 0] [0x2 1 1 [0 0] [4 4]] (REQUEST)
r 0.101488333 _9_ RTR  --- 0 AODV 48 [0 ffffffff 4 800] [energy 89.899236 ei 0.101 es 0.000 et 0.000 er 0.000] ------- [4:255 -1:255 30 0] [0x2 1 1 [0 0] [4 4]] (REQUEST)
r 0.101488366 _20_ RTR  --- 0 AODV 48 [0 ffffffff 4 800] [energy 89.899236 ei 0.101 es 0.000 et 0.000 er 0.000] ------- [4:255 -1:255 30 0] [0x2 1 1 [0 0] [4 4]] (REQUEST)
r 0.101488415 _10_ RTR  --- 0 AODV 48 [0 ffffffff 4 800] [energy 89.899236 ei 0.101 es 0.000 et 0.000 er 0.000] ------- [4:255 -1:255 30 0] [0x2 1 1 [0 0] [4 4]] (REQUEST)
r 0.101488683 _17_ RTR  --- 0 AODV 48 [0 ffffffff 4 800] [energy 89.899236 ei 0.101 es 0.000 et 0.000 er 0.000] ------- [4:255 -1:255 30 0] [0x2 1 1 [0 0] [4 4]] (REQUEST)
r 0.101488683 _21_ RTR  --- 0 AODV 48 [0 ffffffff 4 800] [energy 89.899236 ei 0.101 es 0.000 et 0.000 er 0.000] ------- [4:255 -1:255 30 0] [0x2 1 1 [0 0] [4 4]] (REQUEST)
r 0.101488739 _14_ RTR  --- 0 AODV 48 [0 ffffffff 4 800] [energy 89.899236 ei 0.101 es 0.000 et 0.000 er 0.000] ------- [4:255 -1:255 30 0] [0x2 1 1 [0 0] [4 4]] (REQUEST)
r 0.101488833 _2_ RTR  --- 0 AODV 48 [0 ffffffff 4 800] [energy 89.899236 ei 0.101 es 0.000 et 0.000 er 0.000] ------- [4:255 -1:255 30 0] [0x2 1 1 [0 0] [4 4]] (REQUEST)
r 0.101488833 _0_ RTR  --- 0 AODV 48 [0 ffffffff 4 800] [energy 89.899236 ei 0.101 es 0.000 et 0.000 er 0.000] ------- [4:255 -1:255 30 0] [0x2 1 1 [0 0] [4 4]] (REQUEST)
s 0.101488833 _0_ RTR  --- 0 AODV 44 [0 0 0 0] [energy 89.899236 ei 0.101 es 0.000 et 0.000 er 0.000] ------- [0:255 4:255 30 4] [0x4 1 [0 4] 10.000000] (REPLY)
s 0.101743833 _0_ MAC  --- 0 ARP 86 [0 ffffffff 0 806] [energy 89.899236 ei 0.101 es 0.000 et 0.000 er 0.000] ------- [REQUEST 0/0 0/4]
N -t 0.101744 -n 14 -e 89.898835
N -t 0.101744 -n 16 -e 89.898835
N -t 0.101744 -n 6 -e 89.898835
N -t 0.101744 -n 2 -e 89.898835
N -t 0.101744 -n 3 -e 89.898835
N -t 0.101744 -n 1 -e 89.898835
N -t 0.101744 -n 11 -e 89.898835
N -t 0.101744 -n 10 -e 89.898835
N -t 0.101744 -n 15 -e 89.898835
N -t 0.101744 -n 9 -e 89.898835
N -t 0.101744 -n 12 -e 89.898835
N -t 0.101744 -n 17 -e 89.898835
N -t 0.101745 -n 5 -e 89.898835
N -t 0.101745 -n 26 -e 89.898835
N -t 0.101745 -n 25 -e 89.898835
N -t 0.101745 -n 4 -e 89.897987
N -t 0.101745 -n 7 -e 89.898835
N -t 0.101745 -n 18 -e 89.898835
N -t 0.101745 -n 24 -e 89.898835
N -t 0.101745 -n 20 -e 89.898835
N -t 0.101745 -n 21 -e 89.898835
N -t 0.101745 -n 13 -e 89.898834
N -t 0.101745 -n 27 -e 89.898834
N -t 0.101745 -n 19 -e 89.898834
N -t 0.101745 -n 22 -e 89.898834
N -t 0.101745 -n 8 -e 89.898834
N -t 0.101745 -n 28 -e 89.898135
N -t 0.101745 -n 23 -e 89.898834
r 0.102431953 _14_ MAC  --- 0 ARP 28 [0 ffffffff 0 806] [energy 89.898835 ei 0.101 es 0.000 et 0.000 er 0.000] ------- [REQUEST 0/0 0/4]
r 0.102432000 _16_ MAC  --- 0 ARP 28 [0 ffffffff 0 806] [energy 89.898835 ei 0.101 es 0.000 et 0.000 er 0.000] ------- [REQUEST 0/0 0/4]
r 0.102432067 _6_ MAC  --- 0 ARP 28 [0 ffffffff 0 806] [energy 89.898835 ei 0.101 es 0.000 et 0.000 er 0.000] ------- [REQUEST 0/0 0/4]
r 0.102432069 _2_ MAC  --- 0 ARP 28 [0 ffffffff 0 806] [energy 89.898835 ei 0.101 es 0.000 et 0.000 er 0.000] ------- [REQUEST 0/0 0/4]
r 0.102432069 _3_ MAC  --- 0 ARP 28 [0 ffffffff 0 806] [energy 89.898835 ei 0.101 es 0.000 et 0.000 er 0.000] ------- [REQUEST 0/0 0/4]
r 0.102432167 _1_ MAC  --- 0 ARP 28 [0 ffffffff 0 806] [energy 89.898835 ei 0.101 es 0.000 et 0.000 er 0.000] ------- [REQUEST 0/0 0/4]
r 0.102432253 _11_ MAC  --- 0 ARP 28 [0 ffffffff 0 806] [energy 89.898835 ei 0.101 es 0.000 et 0.000 er 0.000] ------- [REQUEST 0/0 0/4]
r 0.102432258 _10_ MAC  --- 0 ARP 28 [0 ffffffff 0 806] [energy 89.898835 ei 0.101 es 0.000 et 0.000 er 0.000] ------- [REQUEST 0/0 0/4]
r 0.102432291 _15_ MAC  --- 0 ARP 28 [0 ffffffff 0 806] [energy 89.898835 ei 0.101 es 0.000 et 0.000 er 0.000] ------- [REQUEST 0/0 0/4]
r 0.102432434 _9_ MAC  --- 0 ARP 28 [0 ffffffff 0 806] [energy 89.898835 ei 0.101 es 0.000 et 0.000 er 0.000] ------- [REQUEST 0/0 0/4]
r 0.102432434 _12_ MAC  --- 0 ARP 28 [0 ffffffff 0 806] [energy 89.898835 ei 0.101 es 0.000 et 0.000 er 0.000] ------- [REQUEST 0/0 0/4]
r 0.102432483 _17_ MAC  --- 0 ARP 28 [0 ffffffff 0 806] [energy 89.898835 ei 0.101 es 0.000 et 0.000 er 0.000] ------- [REQUEST 0/0 0/4]
r 0.102432521 _5_ MAC  --- 0 ARP 28 [0 ffffffff 0 806] [energy 89.898835 ei 0.101 es 0.000 et 0.000 er 0.000] ------- [REQUEST 0/0 0/4]
r 0.102432521 _26_ MAC  --- 0 ARP 28 [0 ffffffff 0 806] [energy 89.898835 ei 0.101 es 0.000 et 0.000 er 0.000] ------- [REQUEST 0/0 0/4]
r 0.102432521 _25_ MAC  --- 0 ARP 28 [0 ffffffff 0 806] [energy 89.898835 ei 0.101 es 0.000 et 0.000 er 0.000] ------- [REQUEST 0/0 0/4]
r 0.102432667 _4_ MAC  --- 0 ARP 28 [0 ffffffff 0 806] [energy 89.897987 ei 0.101 es 0.000 et 0.001 er 0.000] ------- [REQUEST 0/0 0/4]
r 0.102432667 _7_ MAC  --- 0 ARP 28 [0 ffffffff 0 806] [energy 89.898835 ei 0.101 es 0.000 et 0.000 er 0.000] ------- [REQUEST 0/0 0/4]
r 0.102432667 _18_ MAC  --- 0 ARP 28 [0 ffffffff 0 806] [energy 89.898835 ei 0.101 es 0.000 et 0.000 er 0.000] ------- [REQUEST 0/0 0/4]
r 0.102432667 _24_ MAC  --- 0 ARP 28 [0 ffffffff 0 806] [energy 89.898835 ei 0.101 es 0.000 et 0.000 er 0.000] ------- [REQUEST 0/0 0/4]
s 0.102580400 _10_ RTR  --- 0 AODV 48 [0 ffffffff 4 800] [energy 89.898835 ei 0.101 es 0.000 et 0.000 er 0.000] ------- [10:255 -1:255 29 0] [0x2 2 1 [0 0] [4 4]] (REQUEST)
s 0.102622667 _4_ MAC  --- 0 RTS 44 [52e 0 4 0] [energy 89.897987 ei 0.101 es 0.000 et 0.001 er 0.000] 
N -t 0.102623 -n 19 -e 89.898583
N -t 0.102623 -n 22 -e 89.898583
N -t 0.102623 -n 5 -e 89.898583
N -t 0.102623 -n 9 -e 89.898583
N -t 0.102623 -n 20 -e 89.898583
N -t 0.102623 -n 10 -e 89.898583
N -t 0.102623 -n 21 -e 89.898582
N -t 0.102623 -n 17 -e 89.898582
N -t 0.102623 -n 14 -e 89.898582
N -t 0.102624 -n 2 -e 89.898582
N -t 0.102624 -n 0 -e 89.897894
N -t 0.102624 -n 16 -e 89.898582
N -t 0.102624 -n 7 -e 89.898582
N -t 0.102624 -n 6 -e 89.898582
N -t 0.102624 -n 12 -e 89.898582
N -t 0.102624 -n 11 -e 89.898582
N -t 0.102624 -n 1 -e 89.898582
N -t 0.102624 -n 3 -e 89.898582
N -t 0.102624 -n 15 -e 89.898582
N -t 0.102624 -n 8 -e 89.898582
N -t 0.102624 -n 24 -e 89.898582
N -t 0.102624 -n 23 -e 89.898582
N -t 0.102624 -n 27 -e 89.898582
N -t 0.102624 -n 13 -e 89.898582
N -t 0.102624 -n 25 -e 89.898582
N -t 0.102624 -n 18 -e 89.898581
N -t 0.102624 -n 26 -e 89.898581
r 0.102975500 _0_ MAC  --- 0 RTS 44 [52e 0 4 0] [energy 89.897894 ei 0.101 es 0.000 et 0.001 er 0.000] 
s 0.102985500 _0_ MAC  --- 0 CTS 38 [3f4 4 0 0] [energy 89.897894 ei 0.101 es 0.000 et 0.001 er 0.000] 
N -t 0.102986 -n 14 -e 89.898519
N -t 0.102986 -n 16 -e 89.898519
N -t 0.102986 -n 6 -e 89.898519
N -t 0.102986 -n 2 -e 89.898519
N -t 0.102986 -n 3 -e 89.898519
N -t 0.102986 -n 1 -e 89.898519
N -t 0.102986 -n 11 -e 89.898518
N -t 0.102986 -n 10 -e 89.898518
N -t 0.102986 -n 15 -e 89.898518
N -t 0.102986 -n 9 -e 89.898518
N -t 0.102986 -n 12 -e 89.898518
N -t 0.102986 -n 17 -e 89.898518
N -t 0.102986 -n 5 -e 89.898518
N -t 0.102986 -n 26 -e 89.898518
N -t 0.102986 -n 25 -e 89.898518
N -t 0.102986 -n 4 -e 89.897318
N -t 0.102986 -n 7 -e 89.898518
N -t 0.102986 -n 18 -e 89.898518
N -t 0.102986 -n 24 -e 89.898518
N -t 0.102986 -n 20 -e 89.898518
N -t 0.102986 -n 21 -e 89.898518
N -t 0.102986 -n 13 -e 89.898518
N -t 0.102986 -n 27 -e 89.898518
N -t 0.102986 -n 19 -e 89.898518
N -t 0.102987 -n 22 -e 89.898518
N -t 0.102987 -n 8 -e 89.898518
N -t 0.102987 -n 28 -e 89.897528
N -t 0.102987 -n 23 -e 89.898518
r 0.103290333 _4_ MAC  --- 0 CTS 38 [3f4 4 0 0] [energy 89.897318 ei 0.101 es 0.000 et 0.001 er 0.000] 
s 0.103300333 _4_ MAC  --- 0 ARP 86 [13a 0 4 806] [energy 89.897318 ei 0.101 es 0.000 et 0.001 er 0.000] ------- [REPLY 4/4 0/0]
N -t 0.103300 -n 19 -e 89.898388
N -t 0.103301 -n 22 -e 89.898387
N -t 0.103301 -n 5 -e 89.898387
N -t 0.103301 -n 9 -e 89.898387
N -t 0.103301 -n 20 -e 89.898387
N -t 0.103301 -n 10 -e 89.898387
N -t 0.103301 -n 21 -e 89.898387
N -t 0.103301 -n 17 -e 89.898387
N -t 0.103301 -n 14 -e 89.898387
N -t 0.103301 -n 2 -e 89.898387
N -t 0.103301 -n 0 -e 89.897395
N -t 0.103301 -n 16 -e 89.898387
N -t 0.103301 -n 7 -e 89.898387
N -t 0.103301 -n 6 -e 89.898387
N -t 0.103301 -n 12 -e 89.898387
N -t 0.103301 -n 11 -e 89.898387
N -t 0.103301 -n 1 -e 89.898387
N -t 0.103301 -n 3 -e 89.898387
N -t 0.103302 -n 15 -e 89.898386
N -t 0.103302 -n 8 -e 89.898386
N -t 0.103302 -n 24 -e 89.898386
N -t 0.103302 -n 23 -e 89.898386
N -t 0.103302 -n 27 -e 89.898386
N -t 0.103302 -n 13 -e 89.898386
N -t 0.103302 -n 25 -e 89.898386
N -t 0.103302 -n 18 -e 89.898386
N -t 0.103302 -n 26 -e 89.898386
s 0.103362336 _21_ RTR  --- 0 AODV 48 [0 ffffffff 4 800] [energy 89.898387 ei 0.101 es 0.000 et 0.000 er 0.001] ------- [21:255 -1:255 29 0] [0x2 2 1 [0 0] [4 4]] (REQUEST)
r 0.103989167 _0_ MAC  --- 0 ARP 28 [13a 0 4 806] [energy 89.897395 ei 0.101 es 0.000 et 0.001 er 0.000] ------- [REPLY 4/4 0/0]
s 0.103999167 _0_ MAC  --- 0 ACK 38 [0 4 0 0] [energy 89.897395 ei 0.101 es 0.000 et 0.001 er 0.000] 
N -t 0.103999 -n 14 -e 89.898324
N -t 0.103999 -n 16 -e 89.898323
N -t 0.103999 -n 6 -e 89.898323
N -t 0.103999 -n 2 -e 89.898323
N -t 0.103999 -n 3 -e 89.898323
N -t 0.104000 -n 1 -e 89.898323
N -t 0.104000 -n 11 -e 89.898323
N -t 0.104000 -n 10 -e 89.898323
N -t 0.104000 -n 15 -e 89.898323
N -t 0.104000 -n 9 -e 89.898323
N -t 0.104000 -n 12 -e 89.898323
N -t 0.104000 -n 17 -e 89.898323
N -t 0.104000 -n 5 -e 89.898323
N -t 0.104000 -n 26 -e 89.898323
N -t 0.104000 -n 25 -e 89.898323
N -t 0.104000 -n 4 -e 89.896435
N -t 0.104000 -n 7 -e 89.898323
N -t 0.104000 -n 18 -e 89.898323
N -t 0.104000 -n 24 -e 89.898323
N -t 0.104000 -n 20 -e 89.898323
N -t 0.104000 -n 21 -e 89.898323
N -t 0.104000 -n 13 -e 89.898323
N -t 0.104000 -n 27 -e 89.898323
N -t 0.104000 -n 19 -e 89.898323
N -t 0.104000 -n 22 -e 89.898323
N -t 0.104000 -n 8 -e 89.898323
N -t 0.104000 -n 28 -e 89.896765
N -t 0.104000 -n 23 -e 89.898322
r 0.104304000 _4_ MAC  --- 0 ACK 38 [0 4 0 0] [energy 89.896435 ei 0.101 es 0.000 et 0.002 er 0.000] 
s 0.104413591 _10_ MAC  --- 0 AODV 106 [0 ffffffff a 800] [energy 89.898323 ei 0.101 es 0.000 et 0.000 er 0.001] ------- [10:255 -1:255 29 0] [0x2 2 1 [0 0] [4 4]] (REQUEST)
N -t 0.104414 -n 9 -e 89.898065
N -t 0.104414 -n 5 -e 89.898065
N -t 0.104414 -n 14 -e 89.898064
N -t 0.104414 -n 4 -e 89.896176
N -t 0.104414 -n 0 -e 89.896768
N -t 0.104414 -n 2 -e 89.898064
N -t 0.104414 -n 20 -e 89.898064
N -t 0.104414 -n 16 -e 89.898064
N -t 0.104414 -n 19 -e 89.898064
N -t 0.104414 -n 17 -e 89.898064
N -t 0.104414 -n 21 -e 89.898064
N -t 0.104414 -n 22 -e 89.898064
N -t 0.104414 -n 6 -e 89.898064
N -t 0.104414 -n 3 -e 89.898064
N -t 0.104414 -n 1 -e 89.898064
N -t 0.104414 -n 11 -e 89.898064
N -t 0.104414 -n 12 -e 89.898064
N -t 0.104414 -n 7 -e 89.898064
N -t 0.104414 -n 15 -e 89.898064
N -t 0.104415 -n 25 -e 89.898064
N -t 0.104415 -n 13 -e 89.898064
N -t 0.104415 -n 24 -e 89.898064
N -t 0.104415 -n 8 -e 89.898064
N -t 0.104415 -n 26 -e 89.898064
N -t 0.104415 -n 18 -e 89.898064
N -t 0.104415 -n 27 -e 89.898064
N -t 0.104415 -n 23 -e 89.898064
N -t 0.104415 -n 28 -e 89.896506
r 0.105261879 _9_ MAC  --- 0 AODV 48 [0 ffffffff a 800] [energy 89.898065 ei 0.101 es 0.000 et 0.000 er 0.001] ------- [10:255 -1:255 29 0] [0x2 2 1 [0 0] [4 4]] (REQUEST)
r 0.105261894 _5_ MAC  --- 0 AODV 48 [0 ffffffff a 800] [energy 89.898065 ei 0.101 es 0.000 et 0.000 er 0.001] ------- [10:255 -1:255 29 0] [0x2 2 1 [0 0] [4 4]] (REQUEST)
r 0.105261915 _14_ MAC  --- 0 AODV 48 [0 ffffffff a 800] [energy 89.898064 ei 0.101 es 0.000 et 0.000 er 0.001] ------- [10:255 -1:255 29 0] [0x2 2 1 [0 0] [4 4]] (REQUEST)
r 0.105262006 _4_ MAC  --- 0 AODV 48 [0 ffffffff a 800] [energy 89.896176 ei 0.101 es 0.000 et 0.002 er 0.000] ------- [10:255 -1:255 29 0] [0x2 2 1 [0 0] [4 4]] (REQUEST)
r 0.105262015 _0_ MAC  --- 0 AODV 48 [0 ffffffff a 800] [energy 89.896768 ei 0.101 es 0.000 et 0.002 er 0.000] ------- [10:255 -1:255 29 0] [0x2 2 1 [0 0] [4 4]] (REQUEST)
r 0.105262020 _2_ MAC  --- 0 AODV 48 [0 ffffffff a 800] [energy 89.898064 ei 0.101 es 0.000 et 0.000 er 0.001] ------- [10:255 -1:255 29 0] [0x2 2 1 [0 0] [4 4]] (REQUEST)
r 0.105262043 _20_ MAC  --- 0 AODV 48 [0 ffffffff a 800] [energy 89.898064 ei 0.101 es 0.000 et 0.000 er 0.001] ------- [10:255 -1:255 29 0] [0x2 2 1 [0 0] [4 4]] (REQUEST)
r 0.105262119 _16_ MAC  --- 0 AODV 48 [0 ffffffff a 800] [energy 89.898064 ei 0.101 es 0.000 et 0.000 er 0.001] ------- [10:255 -1:255 29 0] [0x2 2 1 [0 0] [4 4]] (REQUEST)
r 0.105262124 _19_ MAC  --- 0 AODV 48 [0 ffffffff a 800] [energy 89.898064 ei 0.101 es 0.000 et 0.000 er 0.001] ------- [10:255 -1:255 29 0] [0x2 2 1 [0 0] [4 4]] (REQUEST)
r 0.105262161 _17_ MAC  --- 0 AODV 48 [0 ffffffff a 800] [energy 89.898064 ei 0.101 es 0.000 et 0.000 er 0.001] ------- [10:255 -1:255 29 0] [0x2 2 1 [0 0] [4 4]] (REQUEST)
r 0.105262180 _21_ MAC  --- 0 AODV 48 [0 ffffffff a 800] [energy 89.898064 ei 0.101 es 0.000 et 0.000 er 0.001] ------- [10:255 -1:255 29 0] [0x2 2 1 [0 0] [4 4]] (REQUEST)
r 0.105262218 _22_ MAC  --- 0 AODV 48 [0 ffffffff a 800] [energy 89.898064 ei 0.101 es 0.000 et 0.000 er 0.001] ------- [10:255 -1:255 29 0] [0x2 2 1 [0 0] [4 4]] (REQUEST)
r 0.105262226 _6_ MAC  --- 0 AODV 48 [0 ffffffff a 800] [energy 89.898064 ei 0.101 es 0.000 et 0.000 er 0.001] ------- [10:255 -1:255 29 0] [0x2 2 1 [0 0] [4 4]] (REQUEST)
r 0.105262246 _3_ MAC  --- 0 AODV 48 [0 ffffffff a 800] [energy 89.898064 ei 0.101 es 0.000 et 0.000 er 0.001] ------- [10:255 -1:255 29 0] [0x2 2 1 [0 0] [4 4]] (REQUEST)
r 0.105262249 _1_ MAC  --- 0 AODV 48 [0 ffffffff a 800] [energy 89.898064 ei 0.101 es 0.000 et 0.000 er 0.001] ------- [10:255 -1:255 29 0] [0x2 2 1 [0 0] [4 4]] (REQUEST)
r 0.105262256 _11_ MAC  --- 0 AODV 48 [0 ffffffff a 800] [energy 89.898064 ei 0.101 es 0.000 et 0.000 er 0.001] ------- [10:255 -1:255 29 0] [0x2 2 1 [0 0] [4 4]] (REQUEST)
r 0.105262305 _12_ MAC  --- 0 AODV 48 [0 ffffffff a 800] [energy 89.898064 ei 0.101 es 0.000 et 0.000 er 0.001] ------- [10:255 -1:255 29 0] [0x2 2 1 [0 0] [4 4]] (REQUEST)
r 0.105262365 _7_ MAC  --- 0 AODV 48 [0 ffffffff a 800] [energy 89.898064 ei 0.101 es 0.000 et 0.000 er 0.001] ------- [10:255 -1:255 29 0] [0x2 2 1 [0 0] [4 4]] (REQUEST)
r 0.105286879 _9_ RTR  --- 0 AODV 48 [0 ffffffff a 800] [energy 89.898065 ei 0.101 es 0.000 et 0.000 er 0.001] ------- [10:255 -1:255 29 0] [0x2 2 1 [0 0] [4 4]] (REQUEST)
r 0.105286894 _5_ RTR  --- 0 AODV 48 [0 ffffffff a 800] [energy 89.898065 ei 0.101 es 0.000 et 0.000 er 0.001] ------- [10:255 -1:255 29 0] [0x2 2 1 [0 0] [4 4]] (REQUEST)
r 0.105286915 _14_ RTR  --- 0 AODV 48 [0 ffffffff a 800] [energy 89.898064 ei 0.101 es 0.000 et 0.000 er 0.001] ------- [10:255 -1:255 29 0] [0x2 2 1 [0 0] [4 4]] (REQUEST)
r 0.105287006 _4_ RTR  --- 0 AODV 48 [0 ffffffff a 800] [energy 89.896176 ei 0.101 es 0.000 et 0.002 er 0.000] ------- [10:255 -1:255 29 0] [0x2 2 1 [0 0] [4 4]] (REQUEST)
r 0.105287015 _0_ RTR  --- 0 AODV 48 [0 ffffffff a 800] [energy 89.896768 ei 0.101 es 0.000 et 0.002 er 0.000] ------- [10:255 -1:255 29 0] [0x2 2 1 [0 0] [4 4]] (REQUEST)
r 0.105287020 _2_ RTR  --- 0 AODV 48 [0 ffffffff a 800] [energy 89.898064 ei 0.101 es 0.000 et 0.000 er 0.001] ------- [10:255 -1:255 29 0] [0x2 2 1 [0 0] [4 4]] (REQUEST)
r 0.105287043 _20_ RTR  --- 0 AODV 48 [0 ffffffff a 800] [energy 89.898064 ei 0.101 es 0.000 et 0.000 er 0.001] ------- [10:255 -1:255 29 0] [0x2 2 1 [0 0] [4 4]] (REQUEST)
r 0.105287119 _16_ RTR  --- 0 AODV 48 [0 ffffffff a 800] [energy 89.898064 ei 0.101 es 0.000 et 0.000 er 0.001] ------- [10:255 -1:255 29 0] [0x2 2 1 [0 0] [4 4]] (REQUEST)
r 0.105287124 _19_ RTR  --- 0 AODV 48 [0 ffffffff a 800] [energy 89.898064 ei 0.101 es 0.000 et 0.000 er 0.001] ------- [10:255 -1:255 29 0] [0x2 2 1 [0 0] [4 4]] (REQUEST)
r 0.105287161 _17_ RTR  --- 0 AODV 48 [0 ffffffff a 800] [energy 89.898064 ei 0.101 es 0.000 et 0.000 er 0.001] ------- [10:255 -1:255 29 0] [0x2 2 1 [0 0] [4 4]] (REQUEST)
r 0.105287180 _21_ RTR  --- 0 AODV 48 [0 ffffffff a 800] [energy 89.898064 ei 0.101 es 0.000 et 0.000 er 0.001] ------- [10:255 -1:255 29 0] [0x2 2 1 [0 0] [4 4]] (REQUEST)
r 0.105287218 _22_ RTR  --- 0 AODV 48 [0 ffffffff a 800] [energy 89.898064 ei 0.101 es 0.000 et 0.000 er 0.001] ------- [10:255 -1:255 29 0] [0x2 2 1 [0 0] [4 4]] (REQUEST)
r 0.105287226 _6_ RTR  --- 0 AODV 48 [0 ffffffff a 800] [energy 89.898064 ei 0.101 es 0.000 et 0.000 er 0.001] ------- [10:255 -1:255 29 0] [0x2 2 1 [0 0] [4 4]] (REQUEST)
r 0.105287246 _3_ RTR  --- 0 AODV 48 [0 ffffffff a 800] [energy 89.898064 ei 0.101 es 0.000 et 0.000 er 0.001] ------- [10:255 -1:255 29 0] [0x2 2 1 [0 0] [4 4]] (REQUEST)
r 0.105287249 _1_ RTR  --- 0 AODV 48 [0 ffffffff a 800] [energy 89.898064 ei 0.101 es 0.000 et 0.000 er 0.001] ------- [10:255 -1:255 29 0] [0x2 2 1 [0 0] [4 4]] (REQUEST)
r 0.105287256 _11_ RTR  --- 0 AODV 48 [0 ffffffff a 800] [energy 89.898064 ei 0.101 es 0.000 et 0.000 er 0.001] ------- [10:255 -1:255 29 0] [0x2 2 1 [0 0] [4 4]] (REQUEST)
r 0.105287305 _12_ RTR  --- 0 AODV 48 [0 ffffffff a 800] [energy 89.898064 ei 0.101 es 0.000 et 0.000 er 0.001] ------- [10:255 -1:255 29 0] [0x2 2 1 [0 0] [4 4]] (REQUEST)
r 0.105287365 _7_ RTR  --- 0 AODV 48 [0 ffffffff a 800] [energy 89.898064 ei 0.101 es 0.000 et 0.000 er 0.001] ------- [10:255 -1:255 29 0] [0x2 2 1 [0 0] [4 4]] (REQUEST)
s 0.105432180 _21_ MAC  --- 0 AODV 106 [0 ffffffff 15 800] [energy 89.898064 ei 0.101 es 0.000 et 0.000 er 0.001] ------- [21:255 -1:255 29 0] [0x2 2 1 [0 0] [4 4]] (REQUEST)
N -t 0.105433 -n 20 -e 89.897745
N -t 0.105433 -n 7 -e 89.897745
N -t 0.105433 -n 5 -e 89.897745
N -t 0.105433 -n 12 -e 89.897745
N -t 0.105433 -n 10 -e 89.896897
N -t 0.105433 -n 2 -e 89.897745
N -t 0.105433 -n 23 -e 89.897745
N -t 0.105433 -n 19 -e 89.897745
N -t 0.105433 -n 8 -e 89.897745
N -t 0.105433 -n 4 -e 89.895857
N -t 0.105433 -n 14 -e 89.897745
N -t 0.105433 -n 11 -e 89.897745
N -t 0.105433 -n 22 -e 89.897745
N -t 0.105433 -n 16 -e 89.897745
N -t 0.105433 -n 13 -e 89.897745
N -t 0.105433 -n 9 -e 89.897745
N -t 0.105433 -n 0 -e 89.896449
N -t 0.105433 -n 1 -e 89.897745
N -t 0.105433 -n 6 -e 89.897745
N -t 0.105433 -n 3 -e 89.897745
N -t 0.105433 -n 18 -e 89.897745
N -t 0.105433 -n 17 -e 89.897745
N -t 0.105433 -n 15 -e 89.897745
N -t 0.105434 -n 26 -e 89.897744
N -t 0.105434 -n 25 -e 89.897744
N -t 0.105434 -n 28 -e 89.896187
N -t 0.105434 -n 24 -e 89.897744
N -t 0.105434 -n 27 -e 89.897744
s 0.105530759 _17_ RTR  --- 0 AODV 48 [0 ffffffff 4 800] [energy 89.897745 ei 0.101 es 0.000 et 0.000 er 0.001] ------- [17:255 -1:255 29 0] [0x2 2 1 [0 0] [4 4]] (REQUEST)
s 0.105543556 _20_ RTR  --- 0 AODV 48 [0 ffffffff 4 800] [energy 89.897745 ei 0.101 es 0.000 et 0.000 er 0.001] ------- [20:255 -1:255 29 0] [0x2 2 1 [0 0] [4 4]] (REQUEST)
r 0.106280513 _20_ MAC  --- 0 AODV 48 [0 ffffffff 15 800] [energy 89.897745 ei 0.101 es 0.000 et 0.000 er 0.001] ------- [21:255 -1:255 29 0] [0x2 2 1 [0 0] [4 4]] (REQUEST)
r 0.106280545 _7_ MAC  --- 0 AODV 48 [0 ffffffff 15 800] [energy 89.897745 ei 0.101 es 0.000 et 0.000 er 0.001] ------- [21:255 -1:255 29 0] [0x2 2 1 [0 0] [4 4]] (REQUEST)
r 0.106280545 _5_ MAC  --- 0 AODV 48 [0 ffffffff 15 800] [energy 89.897745 ei 0.101 es 0.000 et 0.000 er 0.001] ------- [21:255 -1:255 29 0] [0x2 2 1 [0 0] [4 4]] (REQUEST)
r 0.106280767 _12_ MAC  --- 0 AODV 48 [0 ffffffff 15 800] [energy 89.897745 ei 0.101 es 0.000 et 0.000 er 0.001] ------- [21:255 -1:255 29 0] [0x2 2 1 [0 0] [4 4]] (REQUEST)
r 0.106280769 _10_ MAC  --- 0 AODV 48 [0 ffffffff 15 800] [energy 89.896897 ei 0.101 es 0.000 et 0.001 er 0.001] ------- [21:255 -1:255 29 0] [0x2 2 1 [0 0] [4 4]] (REQUEST)
r 0.106280830 _2_ MAC  --- 0 AODV 48 [0 ffffffff 15 800] [energy 89.897745 ei 0.101 es 0.000 et 0.000 er 0.001] ------- [21:255 -1:255 29 0] [0x2 2 1 [0 0] [4 4]] (REQUEST)
r 0.106280847 _23_ MAC  --- 0 AODV 48 [0 ffffffff 15 800] [energy 89.897745 ei 0.101 es 0.000 et 0.000 er 0.001] ------- [21:255 -1:255 29 0] [0x2 2 1 [0 0] [4 4]] (REQUEST)
r 0.106280847 _19_ MAC  --- 0 AODV 48 [0 ffffffff 15 800] [energy 89.897745 ei 0.101 es 0.000 et 0.000 er 0.001] ------- [21:255 -1:255 29 0] [0x2 2 1 [0 0] [4 4]] (REQUEST)
r 0.106280863 _8_ MAC  --- 0 AODV 48 [0 ffffffff 15 800] [energy 89.897745 ei 0.101 es 0.000 et 0.000 er 0.001] ------- [21:255 -1:255 29 0] [0x2 2 1 [0 0] [4 4]] (REQUEST)
r 0.106280863 _4_ MAC  --- 0 AODV 48 [0 ffffffff 15 800] [energy 89.895857 ei 0.101 es 0.000 et 0.002 er 0.001] ------- [21:255 -1:255 29 0] [0x2 2 1 [0 0] [4 4]] (REQUEST)
r 0.106280897 _14_ MAC  --- 0 AODV 48 [0 ffffffff 15 800] [energy 89.897745 ei 0.101 es 0.000 et 0.000 er 0.001] ------- [21:255 -1:255 29 0] [0x2 2 1 [0 0] [4 4]] (REQUEST)
r 0.106280919 _11_ MAC  --- 0 AODV 48 [0 ffffffff 15 800] [energy 89.897745 ei 0.101 es 0.000 et 0.000 er 0.001] ------- [21:255 -1:255 29 0] [0x2 2 1 [0 0] [4 4]] (REQUEST)
r 0.106280997 _22_ MAC  --- 0 AODV 48 [0 ffffffff 15 800] [energy 89.897745 ei 0.101 es 0.000 et 0.000 er 0.001] ------- [21:255 -1:255 29 0] [0x2 2 1 [0 0] [4 4]] (REQUEST)
r 0.106280997 _16_ MAC  --- 0 AODV 48 [0 ffffffff 15 800] [energy 89.897745 ei 0.101 es 0.000 et 0.000 er 0.001] ------- [21:255 -1:255 29 0] [0x2 2 1 [0 0] [4 4]] (REQUEST)
r 0.106281003 _13_ MAC  --- 0 AODV 48 [0 ffffffff 15 800] [energy 89.897745 ei 0.101 es 0.000 et 0.000 er 0.001] ------- [21:255 -1:255 29 0] [0x2 2 1 [0 0] [4 4]] (REQUEST)
r 0.106281003 _9_ MAC  --- 0 AODV 48 [0 ffffffff 15 800] [energy 89.897745 ei 0.101 es 0.000 et 0.000 er 0.001] ------- [21:255 -1:255 29 0] [0x2 2 1 [0 0] [4 4]] (REQUEST)
r 0.106305513 _20_ RTR  --- 0 AODV 48 [0 ffffffff 15 800] [energy 89.897745 ei 0.101 es 0.000 et 0.000 er 0.001] ------- [21:255 -1:255 29 0] [0x2 2 1 [0 0] [4 4]] (REQUEST)
r 0.106305545 _7_ RTR  --- 0 AODV 48 [0 ffffffff 15 800] [energy 89.897745 ei 0.101 es 0.000 et 0.000 er 0.001] ------- [21:255 -1:255 29 0] [0x2 2 1 [0 0] [4 4]] (REQUEST)
r 0.106305545 _5_ RTR  --- 0 AODV 48 [0 ffffffff 15 800] [energy 89.897745 ei 0.101 es 0.000 et 0.000 er 0.001] ------- [21:255 -1:255 29 0] [0x2 2 1 [0 0] [4 4]] (REQUEST)
r 0.106305767 _12_ RTR  --- 0 AODV 48 [0 ffffffff 15 800] [energy 89.897745 ei 0.101 es 0.000 et 0.000 er 0.001] ------- [21:255 -1:255 29 0] [0x2 2 1 [0 0] [4 4]] (REQUEST)
r 0.106305769 _10_ RTR  --- 0 AODV 48 [0 ffffffff 15 800] [energy 89.896897 ei 0.101 es 0.000 et 0.001 er 0.001] ------- [21:255 -1:255 29 0] [0x2 2 1 [0 0] [4 4]] (REQUEST)
r 0.106305830 _2_ RTR  --- 0 AODV 48 [0 ffffffff 15 800] [energy 89.897745 ei 0.101 es 0.000 et 0.000 er 0.001] ------- [21:255 -1:255 29 0] [0x2 2 1 [0 0] [4 4]] (REQUEST)
r 0.106305847 _23_ RTR  --- 0 AODV 48 [0 ffffffff 15 800] [energy 89.897745 ei 0.101 es 0.000 et 0.000 er 0.001] ------- [21:255 -1:255 29 0] [0x2 2 1 [0 0] [4 4]] (REQUEST)
r 0.106305847 _19_ RTR  --- 0 AODV 48 [0 ffffffff 15 800] [energy 89.897745 ei 0.101 es 0.000 et 0.000 er 0.001] ------- [21:255 -1:255 29 0] [0x2 2 1 [0 0] [4 4]] (REQUEST)
r 0.106305863 _8_ RTR  --- 0 AODV 48 [0 ffffffff 15 800] [energy 89.897745 ei 0.101 es 0.000 et 0.000 er 0.001] ------- [21:255 -1:255 29 0] [0x2 2 1 [0 0] [4 4]] (REQUEST)
r 0.106305863 _4_ RTR  --- 0 AODV 48 [0 ffffffff 15 800] [energy 89.895857 ei 0.101 es 0.000 et 0.002 er 0.001] ------- [21:255 -1:255 29 0] [0x2 2 1 [0 0] [4 4]] (REQUEST)
r 0.106305897 _14_ RTR  --- 0 AODV 48 [0 ffffffff 15 800] [energy 89.897745 ei 0.101 es 0.000 et 0.000 er 0.001] ------- [21:255 -1:255 29 0] [0x2 2 1 [0 0] [4 4]] (REQUEST)
r 0.106305919 _11_ RTR  --- 0 AODV 48 [0 ffffffff 15 800] [energy 89.897745 ei 0.101 es 0.000 et 0.000 er 0.001] ------- [21:255 -1:255 29 0] [0x2 2 1 [0 0] [4 4]] (REQUEST)
r 0.106305997 _22_ RTR  --- 0 AODV 48 [0 ffffffff 15 800] [energy 89.897745 ei 0.101 es 0.000 et 0.000 er 0.001] ------- [21:255 -1:255 29 0] [0x2 2 1 [0 0] [4 4]] (REQUEST)
r 0.106305997 _16_ RTR  --- 0 AODV 48 [0 ffffffff 15 800] [energy 89.897745 ei 0.101 es 0.000 et 0.000 er 0.001] ------- [21:255 -1:255 29 0] [0x2 2 1 [0 0] [4 4]] (REQUEST)
r 0.106306003 _13_ RTR  --- 0 AODV 48 [0 ffffffff 15 800] [energy 89.897745 ei 0.101 es 0.000 et 0.000 er 0.001] ------- [21:255 -1:255 29 0] [0x2 2 1 [0 0] [4 4]] (REQUEST)
r 0.106306003 _9_ RTR  --- 0 AODV 48 [0 ffffffff 15 800] [energy 89.897745 ei 0.101 es 0.000 et 0.000 er 0.001] ------- [21:255 -1:255 29 0] [0x2 2 1 [0 0] [4 4]] (REQUEST)